 Entering Gaussian System, Link 0=/u/local/apps/gaussian/G16_C02/g16_avx/g16
 Initial command:
 /u/local/apps/gaussian/G16_C02/g16_avx/l1.exe "/work/7760150.1.pod_smp.q/Gau-32844.inp" -scrdir="/work/7760150.1.pod_smp.q/"
 Entering Link 1 = /u/local/apps/gaussian/G16_C02/g16_avx/l1.exe PID=     32845.
  
 Copyright (c) 1988-2019, Gaussian, Inc.  All Rights Reserved.
  
 This is part of the Gaussian(R) 16 program.  It is based on
 the Gaussian(R) 09 system (copyright 2009, Gaussian, Inc.),
 the Gaussian(R) 03 system (copyright 2003, Gaussian, Inc.),
 the Gaussian(R) 98 system (copyright 1998, Gaussian, Inc.),
 the Gaussian(R) 94 system (copyright 1995, Gaussian, Inc.),
 the Gaussian 92(TM) system (copyright 1992, Gaussian, Inc.),
 the Gaussian 90(TM) system (copyright 1990, Gaussian, Inc.),
 the Gaussian 88(TM) system (copyright 1988, Gaussian, Inc.),
 the Gaussian 86(TM) system (copyright 1986, Carnegie Mellon
 University), and the Gaussian 82(TM) system (copyright 1983,
 Carnegie Mellon University). Gaussian is a federally registered
 trademark of Gaussian, Inc.
  
 This software contains proprietary and confidential information,
 including trade secrets, belonging to Gaussian, Inc.
  
 This software is provided under written license and may be
 used, copied, transmitted, or stored only in accord with that
 written license.
  
 The following legend is applicable only to US Government
 contracts under FAR:
  
                    RESTRICTED RIGHTS LEGEND
  
 Use, reproduction and disclosure by the US Government is
 subject to restrictions as set forth in subparagraphs (a)
 and (c) of the Commercial Computer Software - Restricted
 Rights clause in FAR 52.227-19.
  
 Gaussian, Inc.
 340 Quinnipiac St., Bldg. 40, Wallingford CT 06492
  
  
 ---------------------------------------------------------------
 Warning -- This program may not be used in any manner that
 competes with the business of Gaussian, Inc. or will provide
 assistance to any competitor of Gaussian, Inc.  The licensee
 of this program is prohibited from giving any competitor of
 Gaussian, Inc. access to this program.  By using this program,
 the user acknowledges that Gaussian, Inc. is engaged in the
 business of creating and licensing software in the field of
 computational chemistry and represents and warrants to the
 licensee that it is not a competitor of Gaussian, Inc. and that
 it will not use this program in any manner prohibited above.
 ---------------------------------------------------------------
  

 Cite this work as:
 Gaussian 16, Revision C.01,
 M. J. Frisch, G. W. Trucks, H. B. Schlegel, G. E. Scuseria, 
 M. A. Robb, J. R. Cheeseman, G. Scalmani, V. Barone, 
 G. A. Petersson, H. Nakatsuji, X. Li, M. Caricato, A. V. Marenich, 
 J. Bloino, B. G. Janesko, R. Gomperts, B. Mennucci, H. P. Hratchian, 
 J. V. Ortiz, A. F. Izmaylov, J. L. Sonnenberg, D. Williams-Young, 
 F. Ding, F. Lipparini, F. Egidi, J. Goings, B. Peng, A. Petrone, 
 T. Henderson, D. Ranasinghe, V. G. Zakrzewski, J. Gao, N. Rega, 
 G. Zheng, W. Liang, M. Hada, M. Ehara, K. Toyota, R. Fukuda, 
 J. Hasegawa, M. Ishida, T. Nakajima, Y. Honda, O. Kitao, H. Nakai, 
 T. Vreven, K. Throssell, J. A. Montgomery, Jr., J. E. Peralta, 
 F. Ogliaro, M. J. Bearpark, J. J. Heyd, E. N. Brothers, K. N. Kudin, 
 V. N. Staroverov, T. A. Keith, R. Kobayashi, J. Normand, 
 K. Raghavachari, A. P. Rendell, J. C. Burant, S. S. Iyengar, 
 J. Tomasi, M. Cossi, J. M. Millam, M. Klene, C. Adamo, R. Cammi, 
 J. W. Ochterski, R. L. Martin, K. Morokuma, O. Farkas, 
 J. B. Foresman, and D. J. Fox, Gaussian, Inc., Wallingford CT, 2019.
 
 ******************************************
 Gaussian 16:  ES64L-G16RevC.01  3-Jul-2019
                28-Feb-2025 
 ******************************************
 %nprocshared=16
 Will use up to   16 processors via shared memory.
 %mem=16GB
 ----------------------------------------------------------------------
 # opt=(calcfc,ts,noeigen) freq uwb97xd nosymm def2svp guess=mix scrf=(
 solvent=H2O)
 ----------------------------------------------------------------------
 1/5=1,10=4,11=1,18=20,26=3,38=1/1,3;
 2/9=110,12=2,15=1,17=6,18=5,40=1/2;
 3/5=43,7=101,11=2,25=1,30=1,70=2201,71=2,72=1,74=-58,116=2,140=1/1,2,3;
 4/13=-1/1;
 5/5=2,38=5,53=1/2;
 8/6=4,10=90,11=11/1;
 11/6=1,8=1,9=11,15=111,16=1,31=1/1,2,10;
 10/6=1,13=1,31=1/2;
 6/7=2,8=2,9=2,10=2,28=1/1;
 7/10=1,25=1,30=1/1,2,3,16;
 1/5=1,10=4,11=1,18=20,26=3/3(2);
 2/9=110,15=1/2;
 99//99;
 2/9=110,15=1/2;
 3/5=43,7=101,11=2,25=1,30=1,70=2205,71=1,72=1,74=-58,116=2/1,2,3;
 4/5=5,16=3,69=1/1;
 5/5=2,38=5,53=1/2;
 7/30=1/1,2,3,16;
 1/5=1,11=1,18=20,26=3/3(-5);
 2/9=110,15=1/2;
 6/7=2,8=2,9=2,10=2,19=2,28=1/1;
 99/9=1/99;
 -----------------------
 pryimidone-2-Me-14-ts14
 -----------------------
 Symbolic Z-matrix:
 Charge =  0 Multiplicity = 1
 C                    0    -1.97245  -0.77175  -0.98198 
 C                    0    -0.43679   0.4224   -0.3535 
 C                    0    -0.90588   1.77918  -0.84365 
 C                    0    -2.18741   1.6733   -0.50235 
 H                    0    -0.36142   2.50284  -1.44836 
 H                    0    -3.0558    2.32507  -0.6192 
 O                    0    -2.82276  -1.56962  -1.30737 
 N                    0    -2.28811   0.34336   0.03708 
 N                    0    -0.67311  -0.63616  -1.20184 
 C                    0    -3.21064   0.0582    1.12028 
 H                    0    -4.25212   0.1208    0.76672 
 H                    0    -3.02656  -0.9547    1.49905 
 H                    0    -3.0612    0.78306   1.93115 
 C                    0     0.49925   0.30992   0.7924 
 H                    0     0.32014   1.09757   1.53533 
 H                    0     0.44673  -0.68941   1.2417 
 H                    0     1.51411   0.45619   0.3844 
 

 GradGradGradGradGradGradGradGradGradGradGradGradGradGradGradGradGradGrad
 Berny optimization.
 Initialization pass.
                           ----------------------------
                           !    Initial Parameters    !
                           ! (Angstroms and Degrees)  !
 --------------------------                            --------------------------
 ! Name  Definition              Value          Derivative Info.                !
 --------------------------------------------------------------------------------
 ! R1    R(1,7)                  1.2106         calculate D2E/DX2 analytically  !
 ! R2    R(1,8)                  1.5432         calculate D2E/DX2 analytically  !
 ! R3    R(1,9)                  1.3248         calculate D2E/DX2 analytically  !
 ! R4    R(2,3)                  1.517          calculate D2E/DX2 analytically  !
 ! R5    R(2,9)                  1.377          calculate D2E/DX2 analytically  !
 ! R6    R(2,14)                 1.4839         calculate D2E/DX2 analytically  !
 ! R7    R(3,4)                  1.3304         calculate D2E/DX2 analytically  !
 ! R8    R(3,5)                  1.0889         calculate D2E/DX2 analytically  !
 ! R9    R(4,6)                  1.092          calculate D2E/DX2 analytically  !
 ! R10   R(4,8)                  1.4387         calculate D2E/DX2 analytically  !
 ! R11   R(8,10)                 1.4511         calculate D2E/DX2 analytically  !
 ! R12   R(10,11)                1.1016         calculate D2E/DX2 analytically  !
 ! R13   R(10,12)                1.097          calculate D2E/DX2 analytically  !
 ! R14   R(10,13)                1.0979         calculate D2E/DX2 analytically  !
 ! R15   R(14,15)                1.0975         calculate D2E/DX2 analytically  !
 ! R16   R(14,16)                1.0969         calculate D2E/DX2 analytically  !
 ! R17   R(14,17)                1.1035         calculate D2E/DX2 analytically  !
 ! A1    A(7,1,8)              120.6673         calculate D2E/DX2 analytically  !
 ! A2    A(7,1,9)              135.3787         calculate D2E/DX2 analytically  !
 ! A3    A(8,1,9)              103.6659         calculate D2E/DX2 analytically  !
 ! A4    A(3,2,9)              115.8135         calculate D2E/DX2 analytically  !
 ! A5    A(3,2,14)             120.8229         calculate D2E/DX2 analytically  !
 ! A6    A(9,2,14)             121.7186         calculate D2E/DX2 analytically  !
 ! A7    A(2,3,4)               98.2679         calculate D2E/DX2 analytically  !
 ! A8    A(2,3,5)              128.258          calculate D2E/DX2 analytically  !
 ! A9    A(4,3,5)              132.6065         calculate D2E/DX2 analytically  !
 ! A10   A(3,4,6)              133.7119         calculate D2E/DX2 analytically  !
 ! A11   A(3,4,8)              103.7197         calculate D2E/DX2 analytically  !
 ! A12   A(6,4,8)              122.4236         calculate D2E/DX2 analytically  !
 ! A13   A(1,8,4)              113.9566         calculate D2E/DX2 analytically  !
 ! A14   A(1,8,10)             118.7482         calculate D2E/DX2 analytically  !
 ! A15   A(4,8,10)             120.4005         calculate D2E/DX2 analytically  !
 ! A16   A(1,9,2)               98.3233         calculate D2E/DX2 analytically  !
 ! A17   A(8,10,11)            110.5048         calculate D2E/DX2 analytically  !
 ! A18   A(8,10,12)            109.4218         calculate D2E/DX2 analytically  !
 ! A19   A(8,10,13)            109.5756         calculate D2E/DX2 analytically  !
 ! A20   A(11,10,12)           108.7802         calculate D2E/DX2 analytically  !
 ! A21   A(11,10,13)           109.1603         calculate D2E/DX2 analytically  !
 ! A22   A(12,10,13)           109.3777         calculate D2E/DX2 analytically  !
 ! A23   A(2,14,15)            111.4328         calculate D2E/DX2 analytically  !
 ! A24   A(2,14,16)            110.8033         calculate D2E/DX2 analytically  !
 ! A25   A(2,14,17)            106.5321         calculate D2E/DX2 analytically  !
 ! A26   A(15,14,16)           111.6385         calculate D2E/DX2 analytically  !
 ! A27   A(15,14,17)           107.7731         calculate D2E/DX2 analytically  !
 ! A28   A(16,14,17)           108.4338         calculate D2E/DX2 analytically  !
 ! D1    D(7,1,8,4)           -116.4835         calculate D2E/DX2 analytically  !
 ! D2    D(7,1,8,10)            34.6015         calculate D2E/DX2 analytically  !
 ! D3    D(9,1,8,4)             68.779          calculate D2E/DX2 analytically  !
 ! D4    D(9,1,8,10)          -140.136          calculate D2E/DX2 analytically  !
 ! D5    D(7,1,9,2)           -172.9608         calculate D2E/DX2 analytically  !
 ! D6    D(8,1,9,2)              0.5905         calculate D2E/DX2 analytically  !
 ! D7    D(9,2,3,4)             81.5398         calculate D2E/DX2 analytically  !
 ! D8    D(9,2,3,5)            -88.7788         calculate D2E/DX2 analytically  !
 ! D9    D(14,2,3,4)          -112.8352         calculate D2E/DX2 analytically  !
 ! D10   D(14,2,3,5)            76.8462         calculate D2E/DX2 analytically  !
 ! D11   D(3,2,9,1)            -75.6233         calculate D2E/DX2 analytically  !
 ! D12   D(14,2,9,1)           118.8918         calculate D2E/DX2 analytically  !
 ! D13   D(3,2,14,15)           34.2325         calculate D2E/DX2 analytically  !
 ! D14   D(3,2,14,16)          159.1863         calculate D2E/DX2 analytically  !
 ! D15   D(3,2,14,17)          -83.0634         calculate D2E/DX2 analytically  !
 ! D16   D(9,2,14,15)         -161.0            calculate D2E/DX2 analytically  !
 ! D17   D(9,2,14,16)          -36.0462         calculate D2E/DX2 analytically  !
 ! D18   D(9,2,14,17)           81.7041         calculate D2E/DX2 analytically  !
 ! D19   D(2,3,4,6)           -178.1001         calculate D2E/DX2 analytically  !
 ! D20   D(2,3,4,8)             -2.5664         calculate D2E/DX2 analytically  !
 ! D21   D(5,3,4,6)             -8.4357         calculate D2E/DX2 analytically  !
 ! D22   D(5,3,4,8)            167.098          calculate D2E/DX2 analytically  !
 ! D23   D(3,4,8,1)            -62.8416         calculate D2E/DX2 analytically  !
 ! D24   D(3,4,8,10)           146.597          calculate D2E/DX2 analytically  !
 ! D25   D(6,4,8,1)            113.3348         calculate D2E/DX2 analytically  !
 ! D26   D(6,4,8,10)           -37.2266         calculate D2E/DX2 analytically  !
 ! D27   D(1,8,10,11)          -79.7617         calculate D2E/DX2 analytically  !
 ! D28   D(1,8,10,12)           39.9946         calculate D2E/DX2 analytically  !
 ! D29   D(1,8,10,13)          159.9137         calculate D2E/DX2 analytically  !
 ! D30   D(4,8,10,11)           69.4215         calculate D2E/DX2 analytically  !
 ! D31   D(4,8,10,12)         -170.8221         calculate D2E/DX2 analytically  !
 ! D32   D(4,8,10,13)          -50.9031         calculate D2E/DX2 analytically  !
 --------------------------------------------------------------------------------
 Trust Radius=3.00D-01 FncErr=1.00D-07 GrdErr=1.00D-06 EigMax=2.50D+02 EigMin=1.00D-04
 Number of steps in this run=     87 maximum allowed number of steps=    102.
 Search for a saddle point of order  1.
 GradGradGradGradGradGradGradGradGradGradGradGradGradGradGradGradGradGrad

                          Input orientation:                          
 ---------------------------------------------------------------------
 Center     Atomic      Atomic             Coordinates (Angstroms)
 Number     Number       Type             X           Y           Z
 ---------------------------------------------------------------------
      1          6           0       -1.972445   -0.771748   -0.981976
      2          6           0       -0.436786    0.422403   -0.353499
      3          6           0       -0.905878    1.779179   -0.843652
      4          6           0       -2.187414    1.673301   -0.502354
      5          1           0       -0.361423    2.502835   -1.448360
      6          1           0       -3.055805    2.325070   -0.619199
      7          8           0       -2.822763   -1.569619   -1.307372
      8          7           0       -2.288112    0.343361    0.037080
      9          7           0       -0.673107   -0.636161   -1.201841
     10          6           0       -3.210636    0.058196    1.120278
     11          1           0       -4.252122    0.120801    0.766716
     12          1           0       -3.026555   -0.954704    1.499045
     13          1           0       -3.061196    0.783064    1.931149
     14          6           0        0.499246    0.309921    0.792402
     15          1           0        0.320135    1.097573    1.535328
     16          1           0        0.446731   -0.689408    1.241704
     17          1           0        1.514107    0.456185    0.384400
 ---------------------------------------------------------------------
                    Distance matrix (angstroms):
                    1          2          3          4          5
     1  C    0.000000
     2  C    2.044316   0.000000
     3  C    2.768380   1.516950   0.000000
     4  C    2.500903   2.156757   1.330424   0.000000
     5  H    3.679103   2.352147   1.088936   2.217498   0.000000
     6  H    3.300842   3.248076   2.229476   1.092043   2.824677
     7  O    1.210587   3.251294   3.886378   3.401213   4.760562
     8  N    1.543240   1.893728   2.178952   1.438704   3.252997
     9  N    1.324766   1.376986   2.452825   2.848863   3.164050
    10  C    2.577091   3.162105   3.482917   2.507685   4.548865
    11  H    3.008570   3.987811   4.067045   2.878162   5.071310
    12  H    2.701867   3.469185   4.178471   3.408250   5.267324
    13  H    3.476941   3.498174   3.652008   2.734585   4.654833
    14  C    3.229192   1.483879   2.609553   3.279229   3.251252
    15  H    3.884212   2.143934   2.761746   3.281983   3.367741
    16  H    3.286936   2.135743   3.503167   3.944978   4.252055
    17  H    3.940920   2.086054   3.019065   3.996118   3.326469
                    6          7          8          9         10
     6  H    0.000000
     7  O    3.961880   0.000000
     8  N    2.224236   2.398519   0.000000
     9  N    3.845206   2.345954   2.258900   0.000000
    10  C    2.861550   2.948510   1.451099   3.509049   0.000000
    11  H    2.865438   3.033550   2.106950   4.154222   1.101644
    12  H    3.904450   2.880213   2.089883   3.596522   1.096958
    13  H    2.980283   4.009986   2.092485   4.187218   1.097851
    14  C    4.323405   4.356313   2.888078   2.499297   3.732840
    15  H    4.188760   5.007261   3.101054   3.388873   3.703905
    16  H    4.981746   4.238178   3.161819   2.688454   3.734968
    17  H    5.038257   5.076851   3.819716   2.914324   4.798240
                   11         12         13         14         15
    11  H    0.000000
    12  H    1.787465   0.000000
    13  H    1.792429   1.791020   0.000000
    14  C    4.755200   3.811810   3.767938   0.000000
    15  H    4.738183   3.926002   3.418916   1.097459   0.000000
    16  H    4.791792   3.492896   3.866401   1.096945   1.815363
    17  H    5.788613   4.883713   4.840731   1.103541   1.778084
                   16         17
    16  H    0.000000
    17  H    1.785118   0.000000
 Symmetry turned off by external request.
 Stoichiometry    C6H8N2O
 Framework group  C1[X(C6H8N2O)]
 Deg. of freedom    45
 Full point group                 C1      NOp   1
 Rotational constants (GHZ):           2.4044342           1.7354544           1.4681119
 Standard basis: def2SVP (5D, 7F)
   166 basis functions,   281 primitive gaussians,   175 cartesian basis functions
    33 alpha electrons       33 beta electrons
       nuclear repulsion energy       452.3369908198 Hartrees.
 NAtoms=   17 NActive=   17 NUniq=   17 SFac= 1.00D+00 NAtFMM=   60 NAOKFM=F Big=F
 Integral buffers will be    131072 words long.
 Raffenetti 2 integral format.
 Two-electron integral symmetry is turned off.
 Nuclear repulsion after empirical dispersion term =      452.3275663819 Hartrees.
 Force inversion solution in PCM.
 ------------------------------------------------------------------------------
 Polarizable Continuum Model (PCM)
 =================================
 Model                : PCM.
 Atomic radii         : UFF (Universal Force Field).
 Polarization charges : Total charges.
 Charge compensation  : None.
 Solution method      : Matrix inversion.
 Cavity type          : Scaled VdW (van der Waals Surface) (Alpha=1.100).
 Cavity algorithm     : GePol (No added spheres)
                        Default sphere list used, NSphG=   17.
                        Lebedev-Laikov grids with approx.  5.0 points / Ang**2.
                        Smoothing algorithm: York/Karplus (Gamma=1.0000).
                        Polarization charges: spherical gaussians, with
                                              point-specific exponents (IZeta= 3).
                        Self-potential: point-specific (ISelfS= 7).
                        Self-field    : sphere-specific E.n sum rule (ISelfD= 2).
 1st derivatives      : Analytical E(r).r(x)/FMM algorithm (CHGder, D1EAlg=3).
                        Cavity 1st derivative terms included.
 2nd derivatives      : Analytical E(r).r(xy)/FMM algorithm (CHGder, D2EAlg=3).
                        Cavity 2nd derivative terms included.
 Solvent              : Water, Eps=  78.355300 Eps(inf)=   1.777849
 ------------------------------------------------------------------------------
 Spheres list:
 ISph  on   Nord     Re0    Alpha      Xe            Ye            Ze
    1   C      1    1.9255  1.100     -1.972445     -0.771748     -0.981976
    2   C      2    1.9255  1.100     -0.436786      0.422403     -0.353499
    3   C      3    1.9255  1.100     -0.905878      1.779179     -0.843652
    4   C      4    1.9255  1.100     -2.187414      1.673301     -0.502354
    5   H      5    1.4430  1.100     -0.361423      2.502835     -1.448360
    6   H      6    1.4430  1.100     -3.055805      2.325070     -0.619199
    7   O      7    1.7500  1.100     -2.822763     -1.569619     -1.307372
    8   N      8    1.8300  1.100     -2.288112      0.343361      0.037080
    9   N      9    1.8300  1.100     -0.673107     -0.636161     -1.201841
   10   C     10    1.9255  1.100     -3.210636      0.058196      1.120278
   11   H     11    1.4430  1.100     -4.252122      0.120801      0.766716
   12   H     12    1.4430  1.100     -3.026555     -0.954704      1.499045
   13   H     13    1.4430  1.100     -3.061196      0.783064      1.931149
   14   C     14    1.9255  1.100      0.499246      0.309921      0.792402
   15   H     15    1.4430  1.100      0.320135      1.097573      1.535328
   16   H     16    1.4430  1.100      0.446731     -0.689408      1.241704
   17   H     17    1.4430  1.100      1.514107      0.456185      0.384400
 ------------------------------------------------------------------------------
 One-electron integrals computed using PRISM.
   1 Symmetry operations used in ECPInt.
 ECPInt:  NShTT=    3081 NPrTT=   11167 LenC2=    3064 LenP2D=    8962.
 LDataN:  DoStor=T MaxTD1= 4 Len=   56
 NBasis=   166 RedAO= T EigKep=  9.19D-04  NBF=   166
 NBsUse=   166 1.00D-06 EigRej= -1.00D+00 NBFU=   166
 ExpMin= 1.22D-01 ExpMax= 2.27D+03 ExpMxC= 3.41D+02 IAcc=3 IRadAn=         5 AccDes= 0.00D+00
 Harris functional with IExCor= 4639 and IRadAn=       5 diagonalized for initial guess.
 HarFok:  IExCor= 4639 AccDes= 0.00D+00 IRadAn=         5 IDoV= 1 UseB2=F ITyADJ=14
 ICtDFT=  3500011 ScaDFX=  1.000000  1.000000  1.000000  1.000000
 FoFCou: FMM=F IPFlag=           0 FMFlag=      100000 FMFlg1=           0
         NFxFlg=           0 DoJE=T BraDBF=F KetDBF=T FulRan=T
         wScrn=  0.000000 ICntrl=       500 IOpCl=  0 I1Cent=   200000004 NGrid=           0
         NMat0=    1 NMatS0=      1 NMatT0=    0 NMatD0=    1 NMtDS0=    0 NMtDT0=    0
 Symmetry not used in FoFCou.
 Mixing orbitals, IMix= 1 IMixAn=  0 NRI=1 NE=   33 Coef=  7.07106781D-01  7.07106781D-01
 Mixing orbitals, IMix= 1 IMixAn=  0 NRI=1 NE=   33 Coef= -7.07106781D-01  7.07106781D-01
 Initial guess <Sx>= 0.0000 <Sy>= 0.0000 <Sz>= 0.0000 <S**2>= 1.0000 S= 0.6180
 Requested convergence on RMS density matrix=1.00D-08 within 128 cycles.
 Requested convergence on MAX density matrix=1.00D-06.
 Requested convergence on             energy=1.00D-06.
 No special actions if energy rises.
 Inv3:  Mode=1 IEnd=     6066252.
 Iteration    1 A*A^-1 deviation from unit magnitude is 6.99D-15 for   1420.
 Iteration    1 A*A^-1 deviation from orthogonality  is 1.95D-15 for   1412    669.
 Iteration    1 A^-1*A deviation from unit magnitude is 6.55D-15 for   1420.
 Iteration    1 A^-1*A deviation from orthogonality  is 4.32D-15 for   1182   1147.
 Restarting incremental Fock formation.
 Error on total polarization charges =  0.00698
 SCF Done:  E(UwB97XD) =  -417.637016869     A.U. after   22 cycles
            NFock= 22  Conv=0.58D-08     -V/T= 2.0101
 <Sx>= 0.0000 <Sy>= 0.0000 <Sz>= 0.0000 <S**2>= 0.0000 S= 0.0000
 <L.S>=  0.00000000000    
 Annihilation of the first spin contaminant:
 S**2 before annihilation     0.0000,   after     0.0000
 DoSCS=F DFT=T ScalE2(SS,OS)=  1.000000  1.000000
 Range of M.O.s used for correlation:     1   166
 NBasis=   166 NAE=    33 NBE=    33 NFC=     0 NFV=     0
 NROrb=    166 NOA=    33 NOB=    33 NVA=   133 NVB=   133
   1 Symmetry operations used in ECPInt.
 ECPInt:  NShTT=    3081 NPrTT=   11167 LenC2=    3064 LenP2D=    8962.
 LDataN:  DoStor=T MaxTD1= 5 Len=  102
 Symmetrizing basis deriv contribution to polar:
 IMax=3 JMax=2 DiffMx= 0.00D+00
 G2DrvN: will do    18 centers at a time, making    1 passes.
 Calling FoFCou, ICntrl=  3107 FMM=F I1Cent=   0 AccDes= 0.00D+00.
 NEqPCM:  Using equilibrium solvation (IEInf=0, Eps=  78.3553, EpsInf=   1.7778)
 G2PCM: DoFxE=T DoFxN=T DoGrad=T DoDP/DQ/DG/TGxP=FFFF NFrqRd=   0 IEInf=0 SqF1=F DoCFld=F IF1Alg=4.
 End of G2Drv F.D. properties file   721 does not exist.
 End of G2Drv F.D. properties file   722 does not exist.
 End of G2Drv F.D. properties file   788 does not exist.
          IDoAtm=11111111111111111
 NEqPCM:  Using equilibrium solvation (IEInf=0, Eps=  78.3553, EpsInf=   1.7778)
          Differentiating once with respect to nuclear coordinates.
 Keep R1 and R2 ints in memory in canonical form, NReq=402601243.
          There are    54 degrees of freedom in the 1st order CPHF.  IDoFFX=6 NUNeed=     0.
     48 vectors produced by pass  0 Test12= 1.63D-14 1.85D-09 XBig12= 3.21D-01 8.44D-02.
 AX will form    48 AO Fock derivatives at one time.
     48 vectors produced by pass  1 Test12= 1.63D-14 1.85D-09 XBig12= 1.43D-01 1.40D-01.
     48 vectors produced by pass  2 Test12= 1.63D-14 1.85D-09 XBig12= 4.57D-03 9.68D-03.
     48 vectors produced by pass  3 Test12= 1.63D-14 1.85D-09 XBig12= 7.46D-05 1.22D-03.
     48 vectors produced by pass  4 Test12= 1.63D-14 1.85D-09 XBig12= 7.86D-07 6.37D-05.
     48 vectors produced by pass  5 Test12= 1.63D-14 1.85D-09 XBig12= 5.41D-09 5.60D-06.
     39 vectors produced by pass  6 Test12= 1.63D-14 1.85D-09 XBig12= 2.95D-11 3.99D-07.
     13 vectors produced by pass  7 Test12= 1.63D-14 1.85D-09 XBig12= 1.56D-13 2.79D-08.
      1 vectors produced by pass  8 Test12= 1.63D-14 1.85D-09 XBig12= 7.11D-16 2.24D-09.
 InvSVY:  IOpt=1 It=  1 EMax= 5.23D-16
 Solved reduced A of dimension   341 with    54 vectors.
 End of Minotr F.D. properties file   721 does not exist.
 End of Minotr F.D. properties file   722 does not exist.
 End of Minotr F.D. properties file   788 does not exist.

 **********************************************************************

            Population analysis using the SCF Density.

 **********************************************************************

 Alpha  occ. eigenvalues --  -19.22937 -14.50469 -14.41350 -10.42016 -10.41976
 Alpha  occ. eigenvalues --  -10.35605 -10.33905 -10.32250 -10.31493  -1.14992
 Alpha  occ. eigenvalues --   -1.08650  -0.99757  -0.90434  -0.85504  -0.77287
 Alpha  occ. eigenvalues --   -0.71637  -0.67863  -0.63079  -0.60845  -0.58805
 Alpha  occ. eigenvalues --   -0.56666  -0.53009  -0.52683  -0.51564  -0.50435
 Alpha  occ. eigenvalues --   -0.48818  -0.47994  -0.47029  -0.41858  -0.40026
 Alpha  occ. eigenvalues --   -0.35622  -0.32641  -0.31427
 Alpha virt. eigenvalues --    0.01037   0.07041   0.12880   0.14218   0.17287
 Alpha virt. eigenvalues --    0.18089   0.18642   0.19911   0.21251   0.21448
 Alpha virt. eigenvalues --    0.23034   0.23970   0.27256   0.29021   0.29839
 Alpha virt. eigenvalues --    0.32166   0.36112   0.41509   0.42255   0.44151
 Alpha virt. eigenvalues --    0.45680   0.48933   0.50265   0.52254   0.53614
 Alpha virt. eigenvalues --    0.56538   0.59694   0.60339   0.61141   0.64046
 Alpha virt. eigenvalues --    0.64473   0.66369   0.68911   0.71200   0.71549
 Alpha virt. eigenvalues --    0.72353   0.72491   0.72597   0.73463   0.74633
 Alpha virt. eigenvalues --    0.75973   0.76459   0.77373   0.79253   0.80795
 Alpha virt. eigenvalues --    0.81925   0.82891   0.86113   0.89993   0.91595
 Alpha virt. eigenvalues --    0.94767   0.95174   0.97899   1.01794   1.05952
 Alpha virt. eigenvalues --    1.09251   1.14685   1.16780   1.21554   1.26470
 Alpha virt. eigenvalues --    1.29176   1.33350   1.35111   1.38991   1.39397
 Alpha virt. eigenvalues --    1.44603   1.55911   1.58760   1.59331   1.60084
 Alpha virt. eigenvalues --    1.61406   1.62282   1.64458   1.69665   1.71326
 Alpha virt. eigenvalues --    1.75707   1.77159   1.81100   1.82864   1.83371
 Alpha virt. eigenvalues --    1.84155   1.85699   1.87215   1.89030   1.90058
 Alpha virt. eigenvalues --    1.91106   1.93168   1.97254   1.97847   2.01161
 Alpha virt. eigenvalues --    2.03024   2.07006   2.10548   2.12711   2.15721
 Alpha virt. eigenvalues --    2.18603   2.20476   2.22191   2.25709   2.33277
 Alpha virt. eigenvalues --    2.34474   2.37629   2.41847   2.43170   2.47098
 Alpha virt. eigenvalues --    2.48506   2.56367   2.59376   2.61500   2.62655
 Alpha virt. eigenvalues --    2.64462   2.69967   2.73727   2.76349   2.78091
 Alpha virt. eigenvalues --    2.81606   2.84906   2.85605   2.93309   2.95917
 Alpha virt. eigenvalues --    2.96658   2.97213   3.01246   3.02282   3.05526
 Alpha virt. eigenvalues --    3.05982   3.15997   3.23485   3.27517   3.30962
 Alpha virt. eigenvalues --    3.49821   3.60880   3.75762
  Beta  occ. eigenvalues --  -19.22937 -14.50469 -14.41350 -10.42016 -10.41976
  Beta  occ. eigenvalues --  -10.35605 -10.33905 -10.32250 -10.31493  -1.14992
  Beta  occ. eigenvalues --   -1.08650  -0.99757  -0.90434  -0.85504  -0.77287
  Beta  occ. eigenvalues --   -0.71637  -0.67863  -0.63079  -0.60845  -0.58805
  Beta  occ. eigenvalues --   -0.56666  -0.53009  -0.52683  -0.51564  -0.50435
  Beta  occ. eigenvalues --   -0.48818  -0.47994  -0.47029  -0.41858  -0.40026
  Beta  occ. eigenvalues --   -0.35622  -0.32641  -0.31427
  Beta virt. eigenvalues --    0.01037   0.07041   0.12880   0.14218   0.17287
  Beta virt. eigenvalues --    0.18089   0.18642   0.19911   0.21251   0.21448
  Beta virt. eigenvalues --    0.23034   0.23970   0.27256   0.29021   0.29839
  Beta virt. eigenvalues --    0.32166   0.36112   0.41509   0.42255   0.44151
  Beta virt. eigenvalues --    0.45680   0.48933   0.50265   0.52254   0.53614
  Beta virt. eigenvalues --    0.56538   0.59694   0.60339   0.61141   0.64046
  Beta virt. eigenvalues --    0.64473   0.66369   0.68911   0.71200   0.71549
  Beta virt. eigenvalues --    0.72353   0.72491   0.72597   0.73463   0.74633
  Beta virt. eigenvalues --    0.75973   0.76459   0.77373   0.79253   0.80795
  Beta virt. eigenvalues --    0.81925   0.82891   0.86113   0.89993   0.91595
  Beta virt. eigenvalues --    0.94767   0.95174   0.97899   1.01794   1.05952
  Beta virt. eigenvalues --    1.09251   1.14685   1.16780   1.21554   1.26470
  Beta virt. eigenvalues --    1.29176   1.33350   1.35111   1.38991   1.39397
  Beta virt. eigenvalues --    1.44603   1.55911   1.58760   1.59331   1.60084
  Beta virt. eigenvalues --    1.61406   1.62282   1.64458   1.69665   1.71326
  Beta virt. eigenvalues --    1.75707   1.77159   1.81100   1.82864   1.83371
  Beta virt. eigenvalues --    1.84155   1.85699   1.87215   1.89030   1.90058
  Beta virt. eigenvalues --    1.91106   1.93168   1.97254   1.97847   2.01161
  Beta virt. eigenvalues --    2.03024   2.07006   2.10548   2.12711   2.15721
  Beta virt. eigenvalues --    2.18603   2.20476   2.22191   2.25709   2.33277
  Beta virt. eigenvalues --    2.34474   2.37629   2.41847   2.43170   2.47098
  Beta virt. eigenvalues --    2.48506   2.56367   2.59376   2.61500   2.62655
  Beta virt. eigenvalues --    2.64462   2.69967   2.73727   2.76349   2.78091
  Beta virt. eigenvalues --    2.81606   2.84906   2.85605   2.93309   2.95917
  Beta virt. eigenvalues --    2.96658   2.97213   3.01246   3.02282   3.05526
  Beta virt. eigenvalues --    3.05982   3.15997   3.23485   3.27517   3.30962
  Beta virt. eigenvalues --    3.49821   3.60880   3.75762
          Condensed to atoms (all electrons):
               1          2          3          4          5          6
     1  C    4.580797  -0.128439  -0.008384  -0.012396   0.000266  -0.002445
     2  C   -0.128439   5.184521   0.255779  -0.081411  -0.031322   0.011608
     3  C   -0.008384   0.255779   5.043668   0.582878   0.430620  -0.055064
     4  C   -0.012396  -0.081411   0.582878   4.792422  -0.042678   0.437928
     5  H    0.000266  -0.031322   0.430620  -0.042678   0.551600  -0.002954
     6  H   -0.002445   0.011608  -0.055064   0.437928  -0.002954   0.559844
     7  O    0.731563   0.004577  -0.000375   0.002139   0.000004   0.000084
     8  N    0.122459   0.128643  -0.117531   0.234266   0.007398  -0.032429
     9  N    0.480107   0.376306  -0.039208  -0.012667   0.001388  -0.000771
    10  C   -0.012138  -0.002524   0.002693  -0.033306  -0.000205   0.000314
    11  H   -0.005194   0.003612  -0.000629  -0.005664   0.000031   0.002789
    12  H    0.001545  -0.003594   0.000212   0.004977   0.000011  -0.000141
    13  H    0.005011  -0.005120   0.001319   0.000627  -0.000045  -0.000986
    14  C    0.012146   0.328996  -0.069498  -0.003835  -0.000223  -0.000411
    15  H   -0.000530  -0.002380   0.002067   0.001011  -0.000069  -0.000112
    16  H   -0.000678   0.001130   0.007232   0.000263  -0.000178   0.000027
    17  H   -0.000339   0.000594  -0.002952  -0.000337   0.000907   0.000027
               7          8          9         10         11         12
     1  C    0.731563   0.122459   0.480107  -0.012138  -0.005194   0.001545
     2  C    0.004577   0.128643   0.376306  -0.002524   0.003612  -0.003594
     3  C   -0.000375  -0.117531  -0.039208   0.002693  -0.000629   0.000212
     4  C    0.002139   0.234266  -0.012667  -0.033306  -0.005664   0.004977
     5  H    0.000004   0.007398   0.001388  -0.000205   0.000031   0.000011
     6  H    0.000084  -0.032429  -0.000771   0.000314   0.002789  -0.000141
     7  O    7.723210  -0.092701  -0.073034   0.010681   0.002054   0.002283
     8  N   -0.092701   7.243064  -0.185247   0.245767  -0.021007  -0.023099
     9  N   -0.073034  -0.185247   6.823335   0.004968  -0.000234   0.000814
    10  C    0.010681   0.245767   0.004968   4.484682   0.406235   0.404111
    11  H    0.002054  -0.021007  -0.000234   0.406235   0.587872  -0.020779
    12  H    0.002283  -0.023099   0.000814   0.404111  -0.020779   0.578193
    13  H    0.000171  -0.020738   0.000020   0.404272  -0.021840  -0.016560
    14  C    0.000495  -0.018607  -0.079848   0.004124  -0.000196   0.000809
    15  H   -0.000006  -0.002704   0.004510  -0.000252  -0.000016  -0.000030
    16  H   -0.000297  -0.003231   0.005079  -0.000093  -0.000006   0.000042
    17  H   -0.000002   0.002986   0.000047  -0.000057   0.000006  -0.000026
              13         14         15         16         17
     1  C    0.005011   0.012146  -0.000530  -0.000678  -0.000339
     2  C   -0.005120   0.328996  -0.002380   0.001130   0.000594
     3  C    0.001319  -0.069498   0.002067   0.007232  -0.002952
     4  C    0.000627  -0.003835   0.001011   0.000263  -0.000337
     5  H   -0.000045  -0.000223  -0.000069  -0.000178   0.000907
     6  H   -0.000986  -0.000411  -0.000112   0.000027   0.000027
     7  O    0.000171   0.000495  -0.000006  -0.000297  -0.000002
     8  N   -0.020738  -0.018607  -0.002704  -0.003231   0.002986
     9  N    0.000020  -0.079848   0.004510   0.005079   0.000047
    10  C    0.404272   0.004124  -0.000252  -0.000093  -0.000057
    11  H   -0.021840  -0.000196  -0.000016  -0.000006   0.000006
    12  H   -0.016560   0.000809  -0.000030   0.000042  -0.000026
    13  H    0.578430   0.000825   0.000359   0.000103  -0.000032
    14  C    0.000825   4.621701   0.374076   0.368331   0.368274
    15  H    0.000359   0.374076   0.583944  -0.016550  -0.012777
    16  H    0.000103   0.368331  -0.016550   0.587810  -0.013212
    17  H   -0.000032   0.368274  -0.012777  -0.013212   0.565599
          Atomic-Atomic Spin Densities.
               1          2          3          4          5          6
     1  C    0.000000   0.000000  -0.000000  -0.000000   0.000000   0.000000
     2  C    0.000000   0.000000   0.000000   0.000000  -0.000000  -0.000000
     3  C   -0.000000   0.000000  -0.000000   0.000000   0.000000   0.000000
     4  C   -0.000000   0.000000   0.000000   0.000000   0.000000  -0.000000
     5  H    0.000000  -0.000000   0.000000   0.000000   0.000000   0.000000
     6  H    0.000000  -0.000000   0.000000  -0.000000   0.000000   0.000000
     7  O   -0.000000  -0.000000   0.000000   0.000000  -0.000000  -0.000000
     8  N    0.000000  -0.000000   0.000000  -0.000000   0.000000  -0.000000
     9  N    0.000000   0.000000   0.000000   0.000000  -0.000000   0.000000
    10  C    0.000000  -0.000000  -0.000000   0.000000  -0.000000  -0.000000
    11  H    0.000000  -0.000000  -0.000000  -0.000000  -0.000000   0.000000
    12  H   -0.000000   0.000000   0.000000  -0.000000   0.000000   0.000000
    13  H   -0.000000   0.000000  -0.000000  -0.000000  -0.000000  -0.000000
    14  C   -0.000000  -0.000000   0.000000  -0.000000  -0.000000   0.000000
    15  H   -0.000000  -0.000000  -0.000000   0.000000   0.000000  -0.000000
    16  H    0.000000   0.000000  -0.000000  -0.000000   0.000000  -0.000000
    17  H    0.000000  -0.000000   0.000000   0.000000  -0.000000  -0.000000
               7          8          9         10         11         12
     1  C   -0.000000   0.000000   0.000000   0.000000   0.000000  -0.000000
     2  C   -0.000000  -0.000000   0.000000  -0.000000  -0.000000   0.000000
     3  C    0.000000   0.000000   0.000000  -0.000000  -0.000000   0.000000
     4  C    0.000000  -0.000000   0.000000   0.000000  -0.000000  -0.000000
     5  H   -0.000000   0.000000  -0.000000  -0.000000  -0.000000   0.000000
     6  H   -0.000000  -0.000000   0.000000  -0.000000   0.000000   0.000000
     7  O    0.000000   0.000000  -0.000000   0.000000   0.000000  -0.000000
     8  N    0.000000   0.000000  -0.000000  -0.000000  -0.000000  -0.000000
     9  N   -0.000000  -0.000000  -0.000001  -0.000000  -0.000000   0.000000
    10  C    0.000000  -0.000000  -0.000000  -0.000000   0.000000   0.000000
    11  H    0.000000  -0.000000  -0.000000   0.000000   0.000000  -0.000000
    12  H   -0.000000  -0.000000   0.000000   0.000000  -0.000000   0.000000
    13  H   -0.000000  -0.000000  -0.000000   0.000000  -0.000000  -0.000000
    14  C    0.000000   0.000000   0.000000   0.000000   0.000000  -0.000000
    15  H    0.000000   0.000000  -0.000000  -0.000000   0.000000   0.000000
    16  H   -0.000000  -0.000000   0.000000  -0.000000  -0.000000   0.000000
    17  H   -0.000000  -0.000000   0.000000  -0.000000  -0.000000   0.000000
              13         14         15         16         17
     1  C   -0.000000  -0.000000  -0.000000   0.000000   0.000000
     2  C    0.000000  -0.000000  -0.000000   0.000000  -0.000000
     3  C   -0.000000   0.000000  -0.000000  -0.000000   0.000000
     4  C   -0.000000  -0.000000   0.000000  -0.000000   0.000000
     5  H   -0.000000  -0.000000   0.000000   0.000000  -0.000000
     6  H   -0.000000   0.000000  -0.000000  -0.000000  -0.000000
     7  O   -0.000000   0.000000   0.000000  -0.000000  -0.000000
     8  N   -0.000000   0.000000   0.000000  -0.000000  -0.000000
     9  N   -0.000000   0.000000  -0.000000   0.000000   0.000000
    10  C    0.000000   0.000000  -0.000000  -0.000000  -0.000000
    11  H   -0.000000   0.000000   0.000000  -0.000000  -0.000000
    12  H   -0.000000  -0.000000   0.000000   0.000000   0.000000
    13  H    0.000000  -0.000000   0.000000   0.000000   0.000000
    14  C   -0.000000  -0.000000   0.000000  -0.000000   0.000000
    15  H    0.000000   0.000000   0.000000  -0.000000   0.000000
    16  H    0.000000  -0.000000  -0.000000   0.000000   0.000000
    17  H    0.000000   0.000000   0.000000   0.000000  -0.000000
 Mulliken charges and spin densities:
               1          2
     1  C    0.236648   0.000000
     2  C   -0.040977   0.000000
     3  C   -0.032827  -0.000000
     4  C    0.135782  -0.000000
     5  H    0.085448   0.000000
     6  H    0.082692   0.000000
     7  O   -0.310845   0.000000
     8  N   -0.467290   0.000000
     9  N   -0.305565  -0.000001
    10  C    0.080730  -0.000000
    11  H    0.072965   0.000000
    12  H    0.071232   0.000000
    13  H    0.074183   0.000000
    14  C    0.092841  -0.000000
    15  H    0.069459   0.000000
    16  H    0.064230   0.000000
    17  H    0.091293  -0.000000
 Sum of Mulliken charges =  -0.00000  -0.00000
 Mulliken charges and spin densities with hydrogens summed into heavy atoms:
               1          2
     1  C    0.236648   0.000000
     2  C   -0.040977   0.000000
     3  C    0.052621  -0.000000
     4  C    0.218474   0.000000
     7  O   -0.310845   0.000000
     8  N   -0.467290   0.000000
     9  N   -0.305565  -0.000001
    10  C    0.299110  -0.000000
    14  C    0.317823  -0.000000
 APT charges:
               1
     1  C   -0.893168
     2  C   -0.092432
     3  C   -0.677136
     4  C   -0.471939
     5  H    0.509157
     6  H    0.832768
     7  O    0.743247
     8  N   -0.282070
     9  N   -0.359133
    10  C   -0.934188
    11  H    0.731990
    12  H    0.221378
    13  H    0.342287
    14  C   -0.572517
    15  H    0.367183
    16  H    0.236234
    17  H    0.298339
 Sum of APT charges =  -0.00000
 APT charges with hydrogens summed into heavy atoms:
               1
     1  C   -0.893168
     2  C   -0.092432
     3  C   -0.167979
     4  C    0.360829
     7  O    0.743247
     8  N   -0.282070
     9  N   -0.359133
    10  C    0.361467
    14  C    0.329239
 Electronic spatial extent (au):  <R**2>=           1597.6640
 Charge=             -0.0000 electrons
 Dipole moment (field-independent basis, Debye):
    X=              1.1996    Y=              6.4383    Z=              5.1378  Tot=              8.3240
 Quadrupole moment (field-independent basis, Debye-Ang):
   XX=            -51.2232   YY=            -54.2134   ZZ=            -56.3621
   XY=            -12.1098   XZ=             -9.8833   YZ=             -8.8770
 Traceless Quadrupole moment (field-independent basis, Debye-Ang):
   XX=              2.7097   YY=             -0.2805   ZZ=             -2.4292
   XY=            -12.1098   XZ=             -9.8833   YZ=             -8.8770
 Octapole moment (field-independent basis, Debye-Ang**2):
  XXX=            238.1106  YYY=            -12.3660  ZZZ=             57.4357  XYY=             88.8251
  XXY=             28.5361  XXZ=             43.8239  XZZ=             87.4530  YZZ=              1.3267
  YYZ=             18.8185  XYZ=             15.4382
 Hexadecapole moment (field-independent basis, Debye-Ang**3):
 XXXX=          -1264.5056 YYYY=           -413.8011 ZZZZ=           -344.3725 XXXY=           -117.0479
 XXXZ=           -157.2707 YYYX=            -37.2243 YYYZ=            -53.4798 ZZZX=            -91.8522
 ZZZY=            -30.6160 XXYY=           -306.0629 XXZZ=           -288.8087 YYZZ=           -127.5001
 XXYZ=            -50.3887 YYXZ=            -41.0243 ZZXY=            -16.3320
 N-N= 4.523275663819D+02 E-N=-1.876149968980D+03  KE= 4.134663847191D+02
  Exact polarizability:       0.000       0.000       0.000       0.000       0.000       0.000
 Approx polarizability:     110.245      10.282      80.308      -4.937       4.152      68.842
                          Isotropic Fermi Contact Couplings
        Atom                 a.u.       MegaHertz       Gauss      10(-4) cm-1
     1  C(13)              0.00000       0.00004       0.00001       0.00001
     2  C(13)              0.00000       0.00008       0.00003       0.00003
     3  C(13)             -0.00000      -0.00003      -0.00001      -0.00001
     4  C(13)             -0.00000      -0.00001      -0.00000      -0.00000
     5  H(1)               0.00000       0.00001       0.00000       0.00000
     6  H(1)               0.00000       0.00000       0.00000       0.00000
     7  O(17)              0.00000      -0.00007      -0.00003      -0.00002
     8  N(14)              0.00000       0.00003       0.00001       0.00001
     9  N(14)             -0.00000      -0.00008      -0.00003      -0.00003
    10  C(13)             -0.00000      -0.00004      -0.00001      -0.00001
    11  H(1)               0.00000       0.00002       0.00001       0.00001
    12  H(1)               0.00000       0.00002       0.00001       0.00001
    13  H(1)               0.00000       0.00002       0.00001       0.00001
    14  C(13)             -0.00000      -0.00003      -0.00001      -0.00001
    15  H(1)               0.00000       0.00000       0.00000       0.00000
    16  H(1)               0.00000       0.00000       0.00000       0.00000
    17  H(1)              -0.00000      -0.00001      -0.00000      -0.00000
 --------------------------------------------------------
       Center         ----  Spin Dipole Couplings  ----
                      3XX-RR        3YY-RR        3ZZ-RR
 --------------------------------------------------------
     1   Atom       -0.000000      0.000000      0.000000
     2   Atom       -0.000000      0.000000     -0.000000
     3   Atom        0.000000     -0.000000      0.000000
     4   Atom       -0.000000      0.000000     -0.000000
     5   Atom        0.000000     -0.000000      0.000000
     6   Atom       -0.000000      0.000000     -0.000000
     7   Atom       -0.000001     -0.000000      0.000001
     8   Atom        0.000000     -0.000000     -0.000000
     9   Atom        0.000001     -0.000000     -0.000000
    10   Atom        0.000000     -0.000000      0.000000
    11   Atom       -0.000000      0.000000      0.000000
    12   Atom        0.000000     -0.000000      0.000000
    13   Atom        0.000000     -0.000000     -0.000000
    14   Atom       -0.000000      0.000000     -0.000000
    15   Atom        0.000000     -0.000000     -0.000000
    16   Atom        0.000000     -0.000000     -0.000000
    17   Atom       -0.000000      0.000000      0.000000
 --------------------------------------------------------
                        XY            XZ            YZ
 --------------------------------------------------------
     1   Atom       -0.000000      0.000000     -0.000000
     2   Atom        0.000000      0.000000     -0.000000
     3   Atom        0.000000     -0.000000      0.000000
     4   Atom        0.000000     -0.000000      0.000000
     5   Atom        0.000000      0.000000      0.000000
     6   Atom        0.000000      0.000000     -0.000000
     7   Atom       -0.000000      0.000000     -0.000001
     8   Atom        0.000000      0.000000      0.000000
     9   Atom        0.000000     -0.000000      0.000001
    10   Atom        0.000000     -0.000000     -0.000000
    11   Atom       -0.000000     -0.000000      0.000000
    12   Atom        0.000000     -0.000000      0.000000
    13   Atom       -0.000000     -0.000000     -0.000000
    14   Atom        0.000000     -0.000000     -0.000000
    15   Atom        0.000000      0.000000     -0.000000
    16   Atom        0.000000     -0.000000      0.000000
    17   Atom       -0.000000      0.000000     -0.000000
 --------------------------------------------------------


 ---------------------------------------------------------------------------------
              Anisotropic Spin Dipole Couplings in Principal Axis System
 ---------------------------------------------------------------------------------

       Atom             a.u.   MegaHertz   Gauss  10(-4) cm-1        Axes

              Baa    -0.0000    -0.000    -0.000    -0.000 -0.3874  0.5330  0.7522
     1 C(13)  Bbb    -0.0000    -0.000    -0.000    -0.000  0.9157  0.3167  0.2472
              Bcc     0.0000     0.000     0.000     0.000 -0.1065  0.7846 -0.6108
 
              Baa    -0.0000    -0.000    -0.000    -0.000  0.7243 -0.3522 -0.5927
     2 C(13)  Bbb     0.0000     0.000     0.000     0.000  0.6880  0.4252  0.5881
              Bcc     0.0000     0.000     0.000     0.000 -0.0449  0.8338 -0.5503
 
              Baa    -0.0000    -0.000    -0.000    -0.000 -0.5736  0.7982 -0.1839
     3 C(13)  Bbb     0.0000     0.000     0.000     0.000  0.1865  0.3458  0.9196
              Bcc     0.0000     0.000     0.000     0.000  0.7976  0.4932 -0.3473
 
              Baa    -0.0000    -0.000    -0.000    -0.000  0.1900 -0.4212  0.8868
     4 C(13)  Bbb    -0.0000    -0.000    -0.000    -0.000  0.9316 -0.2078 -0.2983
              Bcc     0.0000     0.000     0.000     0.000  0.3099  0.8828  0.3529
 
              Baa    -0.0000    -0.000    -0.000    -0.000  0.1556  0.8316 -0.5331
     5 H(1)   Bbb     0.0000     0.000     0.000     0.000  0.7168 -0.4664 -0.5183
              Bcc     0.0000     0.000     0.000     0.000  0.6797  0.3015  0.6687
 
              Baa    -0.0000    -0.000    -0.000    -0.000  0.7235 -0.3362 -0.6029
     6 H(1)   Bbb     0.0000     0.000     0.000     0.000  0.3836 -0.5303  0.7561
              Bcc     0.0000     0.000     0.000     0.000  0.5739  0.7783  0.2547
 
              Baa    -0.0000     0.000     0.000     0.000 -0.3682  0.8290  0.4209
     7 O(17)  Bbb    -0.0000     0.000     0.000     0.000  0.9277  0.3574  0.1075
              Bcc     0.0000    -0.000    -0.000    -0.000  0.0613 -0.4301  0.9007
 
              Baa    -0.0000    -0.000    -0.000    -0.000  0.2809  0.8055 -0.5217
     8 N(14)  Bbb    -0.0000    -0.000    -0.000    -0.000 -0.4571  0.5903  0.6653
              Bcc     0.0000     0.000     0.000     0.000  0.8439  0.0516  0.5341
 
              Baa    -0.0000    -0.000    -0.000    -0.000  0.2146 -0.5993  0.7713
     9 N(14)  Bbb     0.0000     0.000     0.000     0.000  0.9318 -0.1111 -0.3456
              Bcc     0.0000     0.000     0.000     0.000  0.2928  0.7928  0.5346
 
              Baa    -0.0000    -0.000    -0.000    -0.000 -0.3991  0.8961 -0.1942
    10 C(13)  Bbb    -0.0000    -0.000    -0.000    -0.000  0.6665  0.4289  0.6098
              Bcc     0.0000     0.000     0.000     0.000 -0.6298 -0.1139  0.7684
 
              Baa    -0.0000    -0.000    -0.000    -0.000  0.9271 -0.0293  0.3737
    11 H(1)   Bbb     0.0000     0.000     0.000     0.000  0.1330  0.9578 -0.2547
              Bcc     0.0000     0.000     0.000     0.000 -0.3504  0.2858  0.8919
 
              Baa    -0.0000    -0.000    -0.000    -0.000 -0.2818  0.9274 -0.2458
    12 H(1)   Bbb     0.0000     0.000     0.000     0.000  0.9556  0.2942  0.0144
              Bcc     0.0000     0.000     0.000     0.000 -0.0857  0.2309  0.9692
 
              Baa    -0.0000    -0.000    -0.000    -0.000  0.2307  0.7139  0.6612
    13 H(1)   Bbb     0.0000     0.000     0.000     0.000  0.6937 -0.5972  0.4027
              Bcc     0.0000     0.000     0.000     0.000  0.6823  0.3657 -0.6330
 
              Baa    -0.0000    -0.000    -0.000    -0.000  0.6539  0.0136  0.7565
    14 C(13)  Bbb     0.0000     0.000     0.000     0.000 -0.3455  0.8949  0.2825
              Bcc     0.0000     0.000     0.000     0.000  0.6731  0.4461 -0.5898
 
              Baa    -0.0000    -0.000    -0.000    -0.000 -0.1003  0.6634  0.7415
    15 H(1)   Bbb     0.0000     0.000     0.000     0.000  0.5083 -0.6065  0.6114
              Bcc     0.0000     0.000     0.000     0.000  0.8553  0.4382 -0.2764
 
              Baa    -0.0000    -0.000    -0.000    -0.000  0.1721 -0.4980  0.8499
    16 H(1)   Bbb     0.0000     0.000     0.000     0.000  0.1935  0.8631  0.4665
              Bcc     0.0000     0.000     0.000     0.000  0.9659 -0.0842 -0.2449
 
              Baa    -0.0000    -0.000    -0.000    -0.000  0.9536  0.3011  0.0094
    17 H(1)   Bbb     0.0000     0.000     0.000     0.000 -0.0741  0.2041  0.9762
              Bcc     0.0000     0.000     0.000     0.000 -0.2920  0.9315 -0.2169
 

 ---------------------------------------------------------------------------------

   1 Symmetry operations used in ECPInt.
 ECPInt:  NShTT=    3081 NPrTT=   11167 LenC2=    3064 LenP2D=    8962.
 LDataN:  DoStor=T MaxTD1= 6 Len=  172
 D2PCM: PCM CHGder 2nd derivatives, FixD1E=F FixD2E=F DoIter=F DoCFld=F I1PDM=0
 Calling FoFJK, ICntrl=    100127 FMM=F ISym2X=0 I1Cent= 0 IOpClX= 1 NMat=1 NMatS=1 NMatT=0.
 -------------------------------------------------------------------
 Center     Atomic                   Forces (Hartrees/Bohr)
 Number     Number              X              Y              Z
 -------------------------------------------------------------------
      1        6           0.000008054    0.000005694    0.000040916
      2        6          -0.008419653   -0.000292818    0.001842806
      3        6           0.000010374    0.000007035   -0.000038193
      4        6          -0.000040345   -0.000017142    0.000035948
      5        1           0.000013626   -0.000007867    0.000007803
      6        1          -0.000006564   -0.000007147   -0.000006641
      7        8          -0.000018891    0.000013674    0.000006536
      8        7           0.008457543    0.000361831   -0.001817641
      9        7           0.000007858   -0.000026856   -0.000041735
     10        6          -0.000008932   -0.000014754    0.000002714
     11        1          -0.000005171   -0.000008116   -0.000001483
     12        1           0.000004023   -0.000005468   -0.000000969
     13        1           0.000003428   -0.000009464   -0.000004335
     14        6          -0.000055167   -0.000014111    0.000000027
     15        1           0.000009069    0.000014107   -0.000012395
     16        1           0.000021473   -0.000001991   -0.000014180
     17        1           0.000019275    0.000003393    0.000000822
 -------------------------------------------------------------------
 Cartesian Forces:  Max     0.008457543 RMS     0.001711280
 FormGI is forming the generalized inverse of G from B-inverse, IUseBI=4.

 GradGradGradGradGradGradGradGradGradGradGradGradGradGradGradGradGradGrad
 Berny optimization.
 Internal  Forces:  Max     0.004327284 RMS     0.001361867
 Search for a saddle point.
 Step number   1 out of a maximum of   87
 All quantities printed in internal units (Hartrees-Bohrs-Radians)
 Swapping is turned off.
 Second derivative matrix not updated -- analytic derivatives used.
 ITU=  0
     Eigenvalues ---   -0.10322   0.00079   0.00314   0.01008   0.01298
     Eigenvalues ---    0.01531   0.01664   0.02860   0.03971   0.04973
     Eigenvalues ---    0.05344   0.05776   0.05889   0.06258   0.08570
     Eigenvalues ---    0.09913   0.11804   0.12277   0.12750   0.13066
     Eigenvalues ---    0.13230   0.13567   0.15805   0.17327   0.17802
     Eigenvalues ---    0.18892   0.20550   0.22597   0.24492   0.30317
     Eigenvalues ---    0.31880   0.33911   0.34109   0.34907   0.35017
     Eigenvalues ---    0.35323   0.35370   0.35503   0.36859   0.37329
     Eigenvalues ---    0.37610   0.39540   0.47914   0.62135   0.87454
 Eigenvectors required to have negative eigenvalues:
                          D11       D7        D23       D3        R5
   1                    0.33510  -0.30102   0.27534  -0.24096  -0.22156
                          D24       D1        A3        A11       D8
   1                    0.20476  -0.19440   0.19128   0.18967  -0.18514
 RFO step:  Lambda0=7.791662922D-04 Lambda=-3.50458877D-04.
 Linear search not attempted -- option 19 set.
 Iteration  1 RMS(Cart)=  0.03516375 RMS(Int)=  0.00031186
 Iteration  2 RMS(Cart)=  0.00053276 RMS(Int)=  0.00004180
 Iteration  3 RMS(Cart)=  0.00000005 RMS(Int)=  0.00004180
 Variable       Old X    -DE/DX   Delta X   Delta X   Delta X     New X
                                 (Linear)    (Quad)   (Total)
    R1        2.28768   0.00000   0.00000   0.00096   0.00096   2.28864
    R2        2.91630  -0.00168   0.00000  -0.02554  -0.02552   2.89078
    R3        2.50344  -0.00433   0.00000   0.00604   0.00606   2.50950
    R4        2.86662  -0.00091   0.00000  -0.00430  -0.00429   2.86233
    R5        2.60213   0.00004   0.00000  -0.01895  -0.01896   2.58316
    R6        2.80413  -0.00002   0.00000  -0.00202  -0.00202   2.80211
    R7        2.51414  -0.00419   0.00000  -0.00052  -0.00055   2.51359
    R8        2.05779  -0.00000   0.00000  -0.00012  -0.00012   2.05767
    R9        2.06366   0.00000   0.00000   0.00050   0.00050   2.06416
   R10        2.71876  -0.00075   0.00000  -0.00632  -0.00633   2.71242
   R11        2.74218   0.00001   0.00000   0.00124   0.00124   2.74342
   R12        2.08180   0.00001   0.00000   0.00052   0.00052   2.08233
   R13        2.07295   0.00000   0.00000  -0.00020  -0.00020   2.07275
   R14        2.07464  -0.00001   0.00000  -0.00007  -0.00007   2.07457
   R15        2.07390  -0.00000   0.00000  -0.00005  -0.00005   2.07385
   R16        2.07293  -0.00000   0.00000  -0.00038  -0.00038   2.07254
   R17        2.08539   0.00002   0.00000   0.00074   0.00074   2.08613
    A1        2.10604   0.00118   0.00000   0.00125   0.00123   2.10727
    A2        2.36280   0.00104   0.00000  -0.01434  -0.01434   2.34846
    A3        1.80931  -0.00235   0.00000   0.01221   0.01219   1.82151
    A4        2.02133   0.00230   0.00000   0.00441   0.00429   2.02562
    A5        2.10876  -0.00131   0.00000  -0.00351  -0.00357   2.10519
    A6        2.12439  -0.00137   0.00000   0.00405   0.00401   2.12840
    A7        1.71510  -0.00250   0.00000   0.00640   0.00633   1.72143
    A8        2.23852   0.00109   0.00000  -0.00622  -0.00619   2.23233
    A9        2.31442   0.00162   0.00000  -0.00121  -0.00119   2.31323
   A10        2.33371   0.00105   0.00000  -0.00828  -0.00824   2.32547
   A11        1.81025  -0.00189   0.00000   0.01271   0.01263   1.82288
   A12        2.13670   0.00092   0.00000  -0.00438  -0.00434   2.13236
   A13        1.98892   0.00272   0.00000   0.00137   0.00121   1.99012
   A14        2.07255  -0.00169   0.00000  -0.00550  -0.00563   2.06692
   A15        2.10138  -0.00166   0.00000  -0.00931  -0.00942   2.09196
   A16        1.71607  -0.00200   0.00000   0.00735   0.00732   1.72338
   A17        1.92867   0.00000   0.00000   0.00500   0.00499   1.93367
   A18        1.90977  -0.00000   0.00000   0.00023   0.00023   1.91000
   A19        1.91245  -0.00000   0.00000  -0.00174  -0.00174   1.91071
   A20        1.89857  -0.00000   0.00000  -0.00084  -0.00085   1.89772
   A21        1.90521   0.00000   0.00000  -0.00101  -0.00101   1.90419
   A22        1.90900   0.00000   0.00000  -0.00168  -0.00168   1.90732
   A23        1.94487  -0.00000   0.00000  -0.00084  -0.00084   1.94403
   A24        1.93388   0.00001   0.00000   0.00226   0.00226   1.93614
   A25        1.85934   0.00001   0.00000  -0.00285  -0.00286   1.85648
   A26        1.94846   0.00001   0.00000   0.00306   0.00306   1.95152
   A27        1.88100  -0.00001   0.00000  -0.00258  -0.00259   1.87841
   A28        1.89253  -0.00002   0.00000   0.00054   0.00054   1.89307
    D1       -2.03302   0.00147   0.00000  -0.02666  -0.02668  -2.05970
    D2        0.60391  -0.00020   0.00000  -0.05525  -0.05532   0.54859
    D3        1.20042   0.00266   0.00000  -0.01777  -0.01772   1.18270
    D4       -2.44584   0.00099   0.00000  -0.04636  -0.04636  -2.49220
    D5       -3.01874   0.00113   0.00000   0.00734   0.00727  -3.01147
    D6        0.01031  -0.00037   0.00000  -0.00184  -0.00187   0.00844
    D7        1.42314   0.00310   0.00000  -0.01630  -0.01633   1.40681
    D8       -1.54948   0.00180   0.00000  -0.01080  -0.01082  -1.56030
    D9       -1.96935   0.00128   0.00000   0.00555   0.00552  -1.96383
   D10        1.34122  -0.00002   0.00000   0.01105   0.01103   1.35225
   D11       -1.31988  -0.00302   0.00000   0.01744   0.01746  -1.30241
   D12        2.07505  -0.00120   0.00000  -0.00344  -0.00352   2.07154
   D13        0.59747   0.00069   0.00000  -0.00217  -0.00217   0.59530
   D14        2.77833   0.00071   0.00000   0.00289   0.00289   2.78122
   D15       -1.44973   0.00070   0.00000   0.00307   0.00307  -1.44666
   D16       -2.80998  -0.00071   0.00000   0.02094   0.02094  -2.78904
   D17       -0.62912  -0.00069   0.00000   0.02600   0.02600  -0.60313
   D18        1.42601  -0.00070   0.00000   0.02618   0.02617   1.45218
   D19       -3.10843  -0.00116   0.00000  -0.00499  -0.00497  -3.11340
   D20       -0.04479   0.00006   0.00000  -0.00412  -0.00411  -0.04890
   D21       -0.14723   0.00011   0.00000  -0.01156  -0.01157  -0.15880
   D22        2.91641   0.00134   0.00000  -0.01068  -0.01071   2.90570
   D23       -1.09679  -0.00257   0.00000   0.01928   0.01930  -1.07750
   D24        2.55860  -0.00090   0.00000   0.04711   0.04712   2.60572
   D25        1.97807  -0.00150   0.00000   0.01969   0.01969   1.99776
   D26       -0.64973   0.00018   0.00000   0.04751   0.04752  -0.60221
   D27       -1.39210   0.00025   0.00000   0.00409   0.00404  -1.38807
   D28        0.69804   0.00025   0.00000   0.00629   0.00624   0.70428
   D29        2.79102   0.00025   0.00000   0.00331   0.00326   2.79428
   D30        1.21163  -0.00025   0.00000  -0.02316  -0.02311   1.18852
   D31       -2.98141  -0.00025   0.00000  -0.02096  -0.02091  -3.00232
   D32       -0.88843  -0.00025   0.00000  -0.02393  -0.02388  -0.91231
         Item               Value     Threshold  Converged?
 Maximum Force            0.004327     0.000450     NO 
 RMS     Force            0.001362     0.000300     NO 
 Maximum Displacement     0.130176     0.001800     NO 
 RMS     Displacement     0.034988     0.001200     NO 
 Predicted change in Energy= 2.153992D-04
 GradGradGradGradGradGradGradGradGradGradGradGradGradGradGradGradGradGrad

                          Input orientation:                          
 ---------------------------------------------------------------------
 Center     Atomic      Atomic             Coordinates (Angstroms)
 Number     Number       Type             X           Y           Z
 ---------------------------------------------------------------------
      1          6           0       -1.971438   -0.768145   -0.953819
      2          6           0       -0.416349    0.420249   -0.359413
      3          6           0       -0.901761    1.773629   -0.835845
      4          6           0       -2.178408    1.664886   -0.478634
      5          1           0       -0.368201    2.497514   -1.449809
      6          1           0       -3.043416    2.323641   -0.583216
      7          8           0       -2.813590   -1.579620   -1.268533
      8          7           0       -2.288988    0.337036    0.055055
      9          7           0       -0.671293   -0.635476   -1.189476
     10          6           0       -3.251368    0.058071    1.105579
     11          1           0       -4.281816    0.140230    0.723933
     12          1           0       -3.095441   -0.960157    1.482385
     13          1           0       -3.114338    0.773500    1.926907
     14          6           0        0.531784    0.314700    0.775765
     15          1           0        0.352193    1.099601    1.521442
     16          1           0        0.498828   -0.686607    1.222017
     17          1           0        1.539577    0.477197    0.355510
 ---------------------------------------------------------------------
                    Distance matrix (angstroms):
                    1          2          3          4          5
     1  C    0.000000
     2  C    2.045459   0.000000
     3  C    2.760207   1.514678   0.000000
     4  C    2.487625   2.160599   1.330133   0.000000
     5  H    3.671635   2.346553   1.088874   2.216597   0.000000
     6  H    3.293270   3.251841   2.225538   1.092306   2.817444
     7  O    1.211097   3.251575   3.884146   3.399149   4.757710
     8  N    1.529735   1.919761   2.186756   1.435352   3.259095
     9  N    1.327973   1.366952   2.445804   2.840485   3.158364
    10  C    2.561635   3.211651   3.497558   2.498565   4.559993
    11  H    2.996305   4.024162   4.065178   2.862703   5.059478
    12  H    2.689859   3.532036   4.202382   3.402558   5.290661
    13  H    3.461427   3.554038   3.678118   2.730781   4.681421
    14  C    3.229572   1.482811   2.603999   3.277448   3.244662
    15  H    3.874875   2.142380   2.753818   3.274721   3.361765
    16  H    3.292890   2.136259   3.499887   3.948333   4.246060
    17  H    3.948727   2.083268   3.010015   3.991218   3.313680
                    6          7          8          9         10
     6  H    0.000000
     7  O    3.969625   0.000000
     8  N    2.218817   2.387606   0.000000
     9  N    3.840688   2.342454   2.260879   0.000000
    10  C    2.833386   2.917205   1.451756   3.522083   0.000000
    11  H    2.830116   3.013883   2.111277   4.159173   1.101919
    12  H    3.879787   2.833853   2.090538   3.622258   1.096853
    13  H    2.951048   3.979757   2.091778   4.203037   1.097815
    14  C    4.320270   4.354209   2.911474   2.492469   3.806163
    15  H    4.178279   4.998436   3.115708   3.377439   3.774039
    16  H    4.986778   4.239390   3.190857   2.680876   3.825189
    17  H    5.029353   5.081149   3.842894   2.917700   4.867384
                   11         12         13         14         15
    11  H    0.000000
    12  H    1.787061   0.000000
    13  H    1.791978   1.789840   0.000000
    14  C    4.817040   3.909135   3.850952   0.000000
    15  H    4.799005   4.016256   3.505364   1.097432   0.000000
    16  H    4.877120   3.614055   3.960272   1.096742   1.817057
    17  H    5.842765   4.981891   4.920977   1.103932   1.776701
                   16         17
    16  H    0.000000
    17  H    1.785619   0.000000
 Symmetry turned off by external request.
 Stoichiometry    C6H8N2O
 Framework group  C1[X(C6H8N2O)]
 Deg. of freedom    45
 Full point group                 C1      NOp   1
 Rotational constants (GHZ):           2.4270965           1.7316976           1.4533665
 Standard basis: def2SVP (5D, 7F)
   166 basis functions,   281 primitive gaussians,   175 cartesian basis functions
    33 alpha electrons       33 beta electrons
       nuclear repulsion energy       452.3805743849 Hartrees.
 NAtoms=   17 NActive=   17 NUniq=   17 SFac= 1.00D+00 NAtFMM=   60 NAOKFM=F Big=F
 Integral buffers will be    131072 words long.
 Raffenetti 2 integral format.
 Two-electron integral symmetry is turned off.
 Nuclear repulsion after empirical dispersion term =      452.3712301936 Hartrees.
 ------------------------------------------------------------------------------
 Polarizable Continuum Model (PCM)
 =================================
 Model                : PCM.
 Atomic radii         : UFF (Universal Force Field).
 Polarization charges : Total charges.
 Charge compensation  : None.
 Solution method      : Matrix inversion.
 Cavity type          : Scaled VdW (van der Waals Surface) (Alpha=1.100).
 Cavity algorithm     : GePol (No added spheres)
                        Default sphere list used, NSphG=   17.
                        Lebedev-Laikov grids with approx.  5.0 points / Ang**2.
                        Smoothing algorithm: York/Karplus (Gamma=1.0000).
                        Polarization charges: spherical gaussians, with
                                              point-specific exponents (IZeta= 3).
                        Self-potential: point-specific (ISelfS= 7).
                        Self-field    : sphere-specific E.n sum rule (ISelfD= 2).
 1st derivatives      : Analytical E(r).r(x)/FMM algorithm (CHGder, D1EAlg=3).
                        Cavity 1st derivative terms included.
 Solvent              : Water, Eps=  78.355300 Eps(inf)=   1.777849
 ------------------------------------------------------------------------------
 Spheres list:
 ISph  on   Nord     Re0    Alpha      Xe            Ye            Ze
    1   C      1    1.9255  1.100     -1.971438     -0.768145     -0.953819
    2   C      2    1.9255  1.100     -0.416349      0.420249     -0.359413
    3   C      3    1.9255  1.100     -0.901761      1.773629     -0.835845
    4   C      4    1.9255  1.100     -2.178408      1.664886     -0.478634
    5   H      5    1.4430  1.100     -0.368201      2.497514     -1.449809
    6   H      6    1.4430  1.100     -3.043416      2.323641     -0.583216
    7   O      7    1.7500  1.100     -2.813590     -1.579620     -1.268533
    8   N      8    1.8300  1.100     -2.288988      0.337036      0.055055
    9   N      9    1.8300  1.100     -0.671293     -0.635476     -1.189476
   10   C     10    1.9255  1.100     -3.251368      0.058071      1.105579
   11   H     11    1.4430  1.100     -4.281816      0.140230      0.723933
   12   H     12    1.4430  1.100     -3.095441     -0.960157      1.482385
   13   H     13    1.4430  1.100     -3.114338      0.773500      1.926907
   14   C     14    1.9255  1.100      0.531784      0.314700      0.775765
   15   H     15    1.4430  1.100      0.352193      1.099601      1.521442
   16   H     16    1.4430  1.100      0.498828     -0.686607      1.222017
   17   H     17    1.4430  1.100      1.539577      0.477197      0.355510
 ------------------------------------------------------------------------------
 One-electron integrals computed using PRISM.
   1 Symmetry operations used in ECPInt.
 ECPInt:  NShTT=    3081 NPrTT=   11167 LenC2=    3064 LenP2D=    8963.
 LDataN:  DoStor=T MaxTD1= 4 Len=   56
 NBasis=   166 RedAO= T EigKep=  9.34D-04  NBF=   166
 NBsUse=   166 1.00D-06 EigRej= -1.00D+00 NBFU=   166
 Initial guess from the checkpoint file:  "/work/7760150.1.pod_smp.q/Gau-32845.chk"
 B after Tr=     0.006767   -0.000180    0.013018
         Rot=    0.999998    0.001840   -0.000744   -0.000341 Ang=   0.23 deg.
 Initial guess <Sx>= 0.0000 <Sy>= 0.0000 <Sz>= 0.0000 <S**2>= 0.0000 S= 0.0000
 ExpMin= 1.22D-01 ExpMax= 2.27D+03 ExpMxC= 3.41D+02 IAcc=3 IRadAn=         5 AccDes= 0.00D+00
 Harris functional with IExCor= 4639 and IRadAn=       5 diagonalized for initial guess.
 HarFok:  IExCor= 4639 AccDes= 0.00D+00 IRadAn=         5 IDoV= 1 UseB2=F ITyADJ=14
 ICtDFT=  3500011 ScaDFX=  1.000000  1.000000  1.000000  1.000000
 FoFCou: FMM=F IPFlag=           0 FMFlag=      100000 FMFlg1=           0
         NFxFlg=           0 DoJE=T BraDBF=F KetDBF=T FulRan=T
         wScrn=  0.000000 ICntrl=       500 IOpCl=  0 I1Cent=   200000004 NGrid=           0
         NMat0=    1 NMatS0=      1 NMatT0=    0 NMatD0=    1 NMtDS0=    0 NMtDT0=    0
 Symmetry not used in FoFCou.
 Requested convergence on RMS density matrix=1.00D-08 within 128 cycles.
 Requested convergence on MAX density matrix=1.00D-06.
 Requested convergence on             energy=1.00D-06.
 No special actions if energy rises.
 Inv3:  Mode=1 IEnd=     5998188.
 Iteration    1 A*A^-1 deviation from unit magnitude is 4.55D-15 for   1386.
 Iteration    1 A*A^-1 deviation from orthogonality  is 2.52D-15 for   1404    666.
 Iteration    1 A^-1*A deviation from unit magnitude is 4.66D-15 for   1409.
 Iteration    1 A^-1*A deviation from orthogonality  is 3.08D-15 for   1185   1139.
 Error on total polarization charges =  0.00701
 SCF Done:  E(UwB97XD) =  -417.636808660     A.U. after   14 cycles
            NFock= 14  Conv=0.35D-08     -V/T= 2.0100
 <Sx>= 0.0000 <Sy>= 0.0000 <Sz>= 0.0000 <S**2>=-0.0000 S=-0.0000
 <L.S>=  0.00000000000    
 Annihilation of the first spin contaminant:
 S**2 before annihilation    -0.0000,   after    -0.0000
   1 Symmetry operations used in ECPInt.
 ECPInt:  NShTT=    3081 NPrTT=   11167 LenC2=    3064 LenP2D=    8963.
 LDataN:  DoStor=T MaxTD1= 5 Len=  102
 D1PCM: PCM CHGder 1st derivatives, ID1Alg=3 FixD1E=F DoIter=F DoCFld=F I1PDM=0.
 Calling FoFJK, ICntrl=      2127 FMM=F ISym2X=0 I1Cent= 0 IOpClX= 1 NMat=1 NMatS=1 NMatT=0.
 -------------------------------------------------------------------
 Center     Atomic                   Forces (Hartrees/Bohr)
 Number     Number              X              Y              Z
 -------------------------------------------------------------------
      1        6          -0.000296949   -0.000256226   -0.000162170
      2        6           0.000229277    0.000320399   -0.000063401
      3        6           0.000107974   -0.000072683   -0.000042701
      4        6          -0.000034359   -0.000035210   -0.000031592
      5        1          -0.000002507    0.000023601    0.000038981
      6        1           0.000007863   -0.000031790    0.000018252
      7        8           0.000051765    0.000019305   -0.000026735
      8        7          -0.000067559    0.000000390    0.000223046
      9        7           0.000024816    0.000014661    0.000072298
     10        6          -0.000121148    0.000026052   -0.000036873
     11        1           0.000001233   -0.000001561    0.000019043
     12        1           0.000002510   -0.000002843   -0.000008190
     13        1           0.000005874    0.000003481    0.000010326
     14        6           0.000091803   -0.000014549   -0.000045913
     15        1          -0.000010970    0.000001227    0.000001647
     16        1           0.000001696   -0.000004174    0.000005874
     17        1           0.000008679    0.000009918    0.000028108
 -------------------------------------------------------------------
 Cartesian Forces:  Max     0.000320399 RMS     0.000094805

 GradGradGradGradGradGradGradGradGradGradGradGradGradGradGradGradGradGrad
 Berny optimization.
 FormGI is forming the generalized inverse of G from B-inverse, IUseBI=4.
 Internal  Forces:  Max     0.000272936 RMS     0.000075922
 Search for a saddle point.
 Step number   2 out of a maximum of   87
 All quantities printed in internal units (Hartrees-Bohrs-Radians)
 Swapping is turned off.
 Update second derivatives using D2CorX and points    1    2
 ITU=  0  0
     Eigenvalues ---   -0.10662   0.00081   0.00317   0.01020   0.01284
     Eigenvalues ---    0.01536   0.01716   0.02871   0.03972   0.04976
     Eigenvalues ---    0.05344   0.05776   0.05889   0.06263   0.08571
     Eigenvalues ---    0.09919   0.11825   0.12277   0.12749   0.13068
     Eigenvalues ---    0.13226   0.13566   0.15816   0.17328   0.17803
     Eigenvalues ---    0.18891   0.20550   0.22594   0.24485   0.30316
     Eigenvalues ---    0.31873   0.33911   0.34109   0.34904   0.35016
     Eigenvalues ---    0.35323   0.35370   0.35503   0.36859   0.37328
     Eigenvalues ---    0.37610   0.39533   0.47912   0.62140   0.87454
 Eigenvectors required to have negative eigenvalues:
                          D11       D7        D23       D3        R5
   1                    0.33411  -0.30179   0.27552  -0.24140  -0.22001
                          D24       D1        A11       A3        D8
   1                    0.20759  -0.19481   0.18848   0.18836  -0.18623
 RFO step:  Lambda0=9.707835331D-07 Lambda=-2.39418927D-06.
 Linear search not attempted -- option 19 set.
 Iteration  1 RMS(Cart)=  0.00240655 RMS(Int)=  0.00000531
 Iteration  2 RMS(Cart)=  0.00000579 RMS(Int)=  0.00000046
 Iteration  3 RMS(Cart)=  0.00000000 RMS(Int)=  0.00000046
 Variable       Old X    -DE/DX   Delta X   Delta X   Delta X     New X
                                 (Linear)    (Quad)   (Total)
    R1        2.28864  -0.00004   0.00000  -0.00027  -0.00027   2.28837
    R2        2.89078   0.00019   0.00000   0.00220   0.00220   2.89299
    R3        2.50950   0.00027   0.00000  -0.00012  -0.00012   2.50938
    R4        2.86233  -0.00012   0.00000  -0.00017  -0.00017   2.86216
    R5        2.58316   0.00011   0.00000   0.00092   0.00092   2.58409
    R6        2.80211   0.00005   0.00000   0.00024   0.00024   2.80234
    R7        2.51359   0.00019   0.00000   0.00001   0.00001   2.51360
    R8        2.05767  -0.00001   0.00000  -0.00004  -0.00004   2.05763
    R9        2.06416  -0.00003   0.00000  -0.00008  -0.00008   2.06408
   R10        2.71242   0.00006   0.00000   0.00046   0.00046   2.71289
   R11        2.74342   0.00006   0.00000   0.00018   0.00018   2.74360
   R12        2.08233  -0.00001   0.00000  -0.00003  -0.00003   2.08230
   R13        2.07275  -0.00000   0.00000  -0.00004  -0.00004   2.07271
   R14        2.07457   0.00001   0.00000   0.00008   0.00008   2.07465
   R15        2.07385   0.00000   0.00000   0.00005   0.00005   2.07389
   R16        2.07254   0.00001   0.00000   0.00002   0.00002   2.07256
   R17        2.08613  -0.00000   0.00000  -0.00007  -0.00007   2.08606
    A1        2.10727   0.00008   0.00000   0.00062   0.00062   2.10789
    A2        2.34846   0.00002   0.00000   0.00105   0.00105   2.34951
    A3        1.82151  -0.00009   0.00000  -0.00161  -0.00161   1.81990
    A4        2.02562  -0.00007   0.00000  -0.00019  -0.00019   2.02543
    A5        2.10519   0.00006   0.00000   0.00020   0.00020   2.10539
    A6        2.12840   0.00002   0.00000  -0.00043  -0.00043   2.12797
    A7        1.72143   0.00003   0.00000  -0.00038  -0.00038   1.72105
    A8        2.23233   0.00002   0.00000   0.00050   0.00050   2.23283
    A9        2.31323  -0.00004   0.00000   0.00016   0.00016   2.31339
   A10        2.32547  -0.00005   0.00000   0.00054   0.00054   2.32601
   A11        1.82288   0.00015   0.00000  -0.00045  -0.00045   1.82243
   A12        2.13236  -0.00010   0.00000  -0.00004  -0.00004   2.13231
   A13        1.99012  -0.00009   0.00000  -0.00099  -0.00100   1.98913
   A14        2.06692   0.00009   0.00000   0.00050   0.00049   2.06741
   A15        2.09196   0.00001   0.00000  -0.00093  -0.00093   2.09103
   A16        1.72338   0.00022   0.00000   0.00059   0.00059   1.72397
   A17        1.93367   0.00003   0.00000  -0.00017  -0.00017   1.93349
   A18        1.91000  -0.00001   0.00000  -0.00003  -0.00003   1.90996
   A19        1.91071  -0.00001   0.00000   0.00006   0.00006   1.91077
   A20        1.89772  -0.00000   0.00000   0.00011   0.00011   1.89783
   A21        1.90419  -0.00001   0.00000  -0.00009  -0.00009   1.90410
   A22        1.90732   0.00000   0.00000   0.00013   0.00013   1.90746
   A23        1.94403  -0.00002   0.00000  -0.00027  -0.00027   1.94376
   A24        1.93614  -0.00000   0.00000  -0.00006  -0.00006   1.93608
   A25        1.85648   0.00005   0.00000   0.00055   0.00055   1.85703
   A26        1.95152  -0.00000   0.00000  -0.00028  -0.00028   1.95124
   A27        1.87841  -0.00001   0.00000  -0.00009  -0.00009   1.87832
   A28        1.89307  -0.00001   0.00000   0.00019   0.00019   1.89326
    D1       -2.05970  -0.00006   0.00000   0.00283   0.00283  -2.05687
    D2        0.54859  -0.00006   0.00000  -0.00006  -0.00006   0.54853
    D3        1.18270  -0.00010   0.00000   0.00225   0.00224   1.18494
    D4       -2.49220  -0.00011   0.00000  -0.00065  -0.00065  -2.49284
    D5       -3.01147  -0.00012   0.00000  -0.00175  -0.00175  -3.01321
    D6        0.00844  -0.00006   0.00000  -0.00112  -0.00112   0.00732
    D7        1.40681  -0.00014   0.00000   0.00008   0.00008   1.40688
    D8       -1.56030  -0.00011   0.00000  -0.00141  -0.00142  -1.56172
    D9       -1.96383  -0.00008   0.00000  -0.00194  -0.00194  -1.96577
   D10        1.35225  -0.00006   0.00000  -0.00343  -0.00343   1.34881
   D11       -1.30241   0.00012   0.00000   0.00006   0.00006  -1.30235
   D12        2.07154   0.00005   0.00000   0.00202   0.00202   2.07356
   D13        0.59530  -0.00001   0.00000   0.00296   0.00296   0.59827
   D14        2.78122  -0.00003   0.00000   0.00236   0.00236   2.78358
   D15       -1.44666  -0.00002   0.00000   0.00289   0.00289  -1.44377
   D16       -2.78904   0.00004   0.00000   0.00086   0.00086  -2.78818
   D17       -0.60313   0.00002   0.00000   0.00026   0.00026  -0.60287
   D18        1.45218   0.00003   0.00000   0.00078   0.00078   1.45296
   D19       -3.11340   0.00000   0.00000   0.00002   0.00002  -3.11338
   D20       -0.04890  -0.00006   0.00000   0.00073   0.00073  -0.04818
   D21       -0.15880  -0.00002   0.00000   0.00167   0.00167  -0.15713
   D22        2.90570  -0.00007   0.00000   0.00237   0.00237   2.90807
   D23       -1.07750   0.00006   0.00000  -0.00217  -0.00217  -1.07967
   D24        2.60572   0.00003   0.00000   0.00029   0.00029   2.60601
   D25        1.99776   0.00001   0.00000  -0.00153  -0.00153   1.99623
   D26       -0.60221  -0.00001   0.00000   0.00093   0.00093  -0.60128
   D27       -1.38807   0.00001   0.00000  -0.00397  -0.00397  -1.39204
   D28        0.70428   0.00001   0.00000  -0.00396  -0.00396   0.70032
   D29        2.79428   0.00001   0.00000  -0.00378  -0.00378   2.79050
   D30        1.18852  -0.00002   0.00000  -0.00702  -0.00702   1.18151
   D31       -3.00232  -0.00002   0.00000  -0.00701  -0.00701  -3.00932
   D32       -0.91231  -0.00002   0.00000  -0.00683  -0.00683  -0.91914
         Item               Value     Threshold  Converged?
 Maximum Force            0.000273     0.000450     YES
 RMS     Force            0.000076     0.000300     YES
 Maximum Displacement     0.011884     0.001800     NO 
 RMS     Displacement     0.002406     0.001200     NO 
 Predicted change in Energy=-7.117033D-07
[...]

 ----------------------------------------------------------------------
 Unable to Open any file for archive entry.
 1\1\GINC-N1873\Freq\UwB97XD\def2SVP\C6H8N2O1\ZYE\28-Feb-2025\0\\#N Geo
 m=AllCheck Guess=TCheck SCRF=Check GenChk UwB97XD/def2SVP Freq\\pryimi
 done-2-Me-14-ts14\\0,1\C,-1.9715388786,-0.769359231,-0.9543879012\C,-0
 .4168894322,0.4201846833,-0.3585287956\C,-0.9021058692,1.7731753593,-0
 .8360411769\C,-2.1788800884,1.6640264214,-0.4794116311\H,-0.3681836053
 ,2.4975832042,-1.449035331\H,-3.0444607135,2.3218717132,-0.5845193183\
 O,-2.8140748918,-1.579744464,-1.2703692178\N,-2.2882648714,0.336388915
 9,0.055726466\N,-0.6712485663,-0.6362541821,-1.1886381428\C,-3.2514010
 388,0.0585474896,1.1059888434\H,-4.2815671088,0.1452315058,0.724630084
 2\H,-3.0989647008,-0.9610460804,1.4804829327\H,-3.1117574835,0.7717807
 004,1.9288320613\C,0.532452496,0.3152561497,0.7758578642\H,0.352130034
 6,1.0994915642,1.5220925216\H,0.5008812054,-0.6862476561,1.2217903073\
 H,1.5398505126,0.4793629066,0.3553794338\\Version=ES64L-G16RevC.01\HF=
 -417.6368093\S2=0.\S2-1=0.\S2A=0.\RMSD=2.099e-09\RMSF=1.846e-06\ZeroPo
 int=0.134303\Thermal=0.1425046\ETot=-417.4943047\HTot=-417.4933605\GTo
 t=-417.5350876\Dipole=0.5298512,2.5256184,1.942468\DipoleDeriv=2.08833
 24,0.9347679,0.4214263,0.9352787,1.581479,0.7288246,0.3668316,0.927921
 9,0.8217623,1.6979267,-0.2279352,-0.0205016,0.0659606,1.1594374,0.4472
 594,0.0224835,0.4445263,1.2314832,-0.2436038,-0.0904087,-0.0205504,-0.
 0077354,-0.1778001,-0.052743,-0.2090014,-0.0511275,-0.255918,0.3405427
 ,0.2467303,0.012876,-0.1450288,0.6250704,-0.1884661,0.1575011,-0.32846
 ,-0.1861084,0.1685716,0.0148156,0.0168969,-0.0199612,0.1016614,0.06154
 55,0.089394,0.1017473,0.1471911,0.0544434,0.0811923,0.0026483,0.031944
 1,0.0408122,0.0522257,-0.0261484,0.0350435,0.2124237,-1.3243368,-0.727
 6934,-0.3487256,-0.8010405,-1.3331151,-0.4016629,-0.2941375,-0.4273574
 ,-0.6864369,-1.2110864,0.3853305,0.4545506,-0.3249735,-1.0428564,-0.09
 76516,0.2817742,-0.2072241,-0.6688766,-1.5702506,-0.5833559,-0.3008429
 ,0.1389491,-1.1866345,-0.5139166,0.1665952,-0.4451118,-1.1109314,0.372
 3109,0.0851393,-0.0731048,0.1195912,0.0759352,-0.0868873,-0.4066663,-0
 .0540828,0.4817107,-0.1769766,0.0025182,0.052125,-0.0078652,0.0985055,
 0.0414062,0.0000838,0.0246534,-0.0359675,0.0418102,0.0472928,0.0215161
 ,-0.0115474,-0.0413239,0.0985355,0.0590504,0.033235,0.0587759,0.053761
 8,-0.0533606,-0.0107208,-0.0200636,0.0258487,-0.1081285,0.0658765,-0.0
 589112,-0.026914,-0.506685,-0.117115,-0.2800405,-0.0045287,-0.0533707,
 -0.0144281,-0.0991891,0.0231627,-0.1040792,0.1218905,0.0492213,0.04000
 95,0.0352878,0.0171589,-0.0627554,-0.0551871,-0.0460238,0.0355493,0.10
 02809,-0.0162641,0.0047459,0.0130976,-0.0299599,0.0662198,-0.0701721,0
 .031246,0.0624481,-0.0069319,-0.0308752,0.027692,0.0026351,0.139152,0.
 0306227,-0.0490885,-0.0032373,0.0238875\Polar=120.0806055,10.457208,91
 .5590141,-3.2153208,3.2209948,76.5338255\Quadrupole=1.9457169,-0.29826
 3,-1.6474539,-8.9489252,-7.0946797,-6.4639225\PG=C01 [X(C6H8N2O1)]\NIm
 ag=1\\0.87868699,0.38278400,0.55876779,0.03420796,0.10783960,0.2848825
 6,-0.01404772,-0.07823275,-0.06745965,0.31936341,-0.08325157,-0.021244
 22,-0.00693709,0.01159864,0.54219462,-0.06747412,0.01386737,0.01273076
 ,0.25020114,0.04361490,0.41963467,-0.01594067,0.00667261,0.00516986,-0
 .08790325,0.04246075,-0.01754906,0.79481652,-0.00043003,0.00149265,0.0
 0035023,0.03209011,-0.16528605,0.05301635,0.10511999,0.50368538,0.0110
 8179,-0.01018512,0.00022010,-0.01752688,0.05050870,-0.09143206,-0.2283
 3958,-0.22019658,0.32152204,0.00082846,-0.01190866,-0.01872909,-0.0386
 3324,0.02941105,0.01146656,-0.55679020,-0.01786872,0.14011020,0.917519
 17,0.01891327,-0.03168923,-0.00160606,0.07328988,-0.01169400,-0.025798
 13,-0.03444619,-0.07995309,0.02618967,-0.12825987,0.50475162,-0.006537
 54,-0.00670234,0.02106171,-0.02686488,-0.00107758,0.01950715,0.1282663
 5,0.02591365,-0.10545355,-0.14261443,-0.10220180,0.21933210,0.00030090
 ,-0.00123629,-0.00003697,0.00619141,0.00471869,-0.00688594,-0.12628023
 ,-0.09442050,0.08872656,0.00102963,-0.01794739,0.01222464,0.12066051,0
 .00175689,0.00102114,-0.00068535,-0.00837158,-0.00081553,0.00549833,-0
 .09670360,-0.19084927,0.12357883,0.00056444,0.00057399,0.00172920,0.10
 665407,0.18487800,0.00207944,-0.00124423,-0.00172652,0.00532412,0.0008
 2893,-0.00400677,0.10093512,0.12352449,-0.13600602,-0.00914457,-0.0022
 3423,0.00682321,-0.09721193,-0.13323709,0.13046625,-0.00087425,-0.0005
 0854,0.00078441,-0.00409622,-0.00090885,0.00386980,-0.00633114,0.01678
 394,-0.00544074,-0.24907184,0.14205461,-0.01603874,0.00035974,-0.00075
 789,-0.00077889,0.24832030,-0.00116537,0.00274399,0.00473616,-0.003185
 60,-0.00265104,0.00712943,-0.00845834,0.00915583,-0.00010980,0.1398158
 3,-0.15530634,0.02032517,0.00013424,-0.00083476,-0.00135236,-0.1525480
 5,0.16249922,-0.00122713,-0.00141961,-0.00308530,0.00364927,0.00309078
 ,0.01017871,0.00069466,-0.00627276,0.00925843,-0.01657226,0.02446361,-
 0.04539407,-0.00136615,-0.00132852,-0.00283563,0.01914391,-0.02672985,
 0.02887644,-0.38926928,-0.29881729,-0.10159250,-0.01322304,0.01795055,
 0.02072742,0.00287077,-0.00017677,-0.00494323,0.00289617,0.00000927,-0
 .00262772,0.00014364,0.00001341,0.00046122,0.00039716,0.00001204,0.000
 74446,0.45259381,-0.29651881,-0.37286854,-0.11144385,-0.00011119,0.010
 97849,-0.00285723,-0.00101136,-0.00226726,0.00041185,0.00310031,0.0051
 6138,-0.00526523,0.00052632,0.00043708,0.00154147,0.00036599,-0.000790
 51,0.00042023,0.35895711,0.40922095,-0.10156133,-0.11931126,-0.1256173
 5,0.00730707,-0.00248251,0.00613035,-0.00219473,-0.00024209,-0.0006488
 2,0.00250585,0.00346636,-0.00822652,0.00019508,0.00060833,0.00136418,0
 .00004171,-0.00052465,0.00061060,0.12499665,0.15760541,0.10707544,-0.1
 0052588,0.02268471,0.04086971,0.07255790,-0.00822471,-0.06223598,-0.02
 413249,-0.05023174,0.03371945,-0.07430611,-0.03645020,0.04375327,-0.00
 126846,-0.00342570,-0.00124902,0.00810659,0.02151483,-0.00491389,0.022
 19554,-0.02267963,-0.01235393,0.32408863,-0.02033289,-0.05778467,0.037
 64691,0.01450887,-0.03501579,-0.02324424,-0.03757845,-0.03396697,0.026
 15696,0.01936121,-0.22833389,0.04170533,0.00247214,0.00780597,0.013194
 16,-0.00700787,-0.01749350,0.00893215,-0.01616996,-0.04581091,-0.04573
 970,0.04751819,0.48472161,0.03508020,0.01235903,-0.07471651,-0.0278868
 3,-0.00389098,-0.02628274,0.02802106,0.03369889,-0.00999693,0.02156166
 ,0.06466500,-0.09627192,0.00343292,0.00502536,0.00500801,0.00058248,0.
 00119164,0.00241194,-0.01221917,-0.03298336,-0.00521096,-0.20538500,-0
 .06295451,0.42411338,-0.35352262,-0.03231221,0.09006611,-0.10969190,-0
 .02915568,-0.02129655,0.01265618,0.00585819,-0.00984580,-0.00222996,-0
 .00274122,0.00354729,-0.00054478,0.00108939,0.00040309,0.00115864,0.00
 275762,-0.00044198,-0.07734622,-0.03632691,-0.01526898,-0.02185020,0.0
 3298507,0.04094108,0.55044362,-0.02469845,-0.09702767,-0.01092561,-0.0
 5635782,-0.22283089,-0.09210523,0.00381139,-0.03749359,-0.01998255,-0.
 00608546,0.00129652,-0.00352904,0.00060600,-0.00049686,0.00061304,0.00
 117592,0.00167925,0.00137827,-0.05744130,0.00093905,0.00465191,0.05516
 449,0.02083362,-0.04091676,0.07765143,0.33386179,0.08033129,-0.0076641
 1,-0.09065564,-0.06185924,-0.09628429,-0.14021853,0.00051080,-0.009496
 96,0.01374374,0.00122152,0.01239522,-0.00000879,0.00010012,-0.00087610
 ,-0.00055366,-0.00097450,-0.00296942,-0.00048200,-0.02329173,-0.005917
 12,0.02122941,0.07286752,-0.02410575,-0.03232157,-0.06477728,0.1649671
 5,0.23607168,-0.01209062,0.01404968,0.01032749,0.01237175,-0.00543079,
 -0.00581808,0.00185842,0.00139856,0.00152009,-0.00264123,-0.00845002,0
 .00048067,0.00044027,-0.00112779,-0.00048987,0.00214240,0.00100170,-0.
 00091150,0.00001088,-0.00403642,-0.00197071,-0.15801352,-0.02727718,0.
 08842211,0.00633137,0.00816770,0.00689129,0.53464188,0.01525636,0.0172
 2162,-0.00995571,-0.00628172,-0.00294424,0.00300862,-0.00129803,-0.005
 39101,0.00312854,-0.02598407,-0.00104440,0.02403441,-0.00147585,-0.000
 42636,-0.00123198,0.00041424,0.00101589,-0.00059746,-0.00151328,-0.003
 02789,0.00013681,-0.01214036,-0.10508775,0.01387454,0.00724518,-0.0065
 3271,-0.00581437,-0.01451919,0.62687784,0.00593775,0.00436844,-0.01751
 006,0.03169928,-0.00501739,-0.01469794,-0.00220103,-0.00326882,0.00324
 116,0.01024934,0.00094426,-0.00858050,0.00034209,-0.00065977,0.0013327
 6,-0.00004939,-0.00172154,0.00045406,0.00350218,0.00311785,0.00253965,
 0.05511674,0.01754059,-0.16403233,0.00319762,0.00926226,0.01229216,0.0
 4232918,0.01651045,0.54909619,-0.00310877,-0.00187962,-0.00148988,0.00
 904365,-0.00042715,-0.00453874,-0.00061757,-0.00121393,0.00108185,0.00
 114454,0.00025238,-0.00029737,0.00012807,-0.00012501,0.00029549,-0.000
 33775,-0.00065701,0.00014535,0.00200445,0.00094807,0.00012755,-0.03139
 943,-0.00168824,0.00427684,-0.00008057,0.00302266,0.00408556,-0.275835
 01,0.02210311,-0.09621502,0.30249123,0.00029259,0.00080081,0.00061061,
 0.00175420,-0.00078832,-0.00092539,-0.00032634,-0.00008138,0.00026756,
 -0.00110710,0.00086121,-0.00046731,0.00008946,-0.00020554,0.00002205,0
 .00046779,-0.00007666,-0.00001589,-0.00031462,0.00006889,0.00011731,-0
 .00974609,0.00150944,-0.00146303,0.00026677,0.00027219,0.00080598,0.02
 198564,-0.05106795,0.00915498,-0.02060069,0.04588024,0.00413281,-0.000
 61215,0.00011302,-0.00879256,0.00203947,0.00452579,0.00088214,0.000476
 63,-0.00094245,-0.00005141,-0.00047810,0.00111188,-0.00021346,0.000331
 53,-0.00016461,-0.00077606,0.00020534,0.00005866,-0.00150442,-0.000381
 03,-0.00063521,0.03895045,0.00068128,0.00615575,-0.00166604,-0.0038809
 9,-0.00392288,-0.09741748,0.00959506,-0.08610790,0.09409465,-0.0112420
 5,0.08911196,0.00111176,-0.00087748,-0.00013067,-0.00012539,-0.0003036
 7,0.00056477,-0.00035322,-0.00114080,0.00042674,-0.00208067,0.00112417
 ,0.00334240,-0.00033045,-0.00014056,-0.00024433,-0.00012948,-0.0002750
 9,0.00007423,-0.00013841,0.00027776,0.00038360,0.00129547,-0.02655877,
 0.01136221,-0.00004810,-0.00027493,-0.00071077,-0.05567926,0.04799607,
 -0.01648563,-0.00163706,0.02677040,-0.00829468,0.05789970,-0.00066212,
 -0.00122200,-0.00175202,0.00087548,-0.00025298,-0.00001891,0.00000861,
 -0.00039178,0.00031748,-0.00051498,0.00169130,0.00055701,-0.00009467,-
 0.00005450,-0.00008221,0.00000533,0.00005099,-0.00018484,0.00090538,0.
 00063883,-0.00001670,-0.00227116,-0.00305736,0.00225870,-0.00004869,0.
 00048128,0.00041303,0.04161677,-0.29645004,0.08895796,-0.00108851,-0.0
 0001427,-0.00101017,-0.04192771,0.31182703,0.00168095,0.00191175,0.000
 33825,-0.00095788,0.00052306,0.00087953,0.00069587,0.00113746,-0.00050
 995,0.00222933,-0.00150342,-0.00275616,0.00023610,0.00006313,0.0001653
 2,-0.00006945,0.00009294,0.00000490,-0.00099657,-0.00112918,0.00033757
 ,-0.00024321,0.02608271,-0.01184325,-0.00080773,-0.00021673,-0.0007256
 4,-0.01296831,0.08169351,-0.07739277,-0.00100067,0.01013126,-0.0031863
 3,0.00793669,-0.09728784,0.08416540,-0.00071704,-0.00552315,0.00030178
 ,-0.00053896,0.00104367,0.00084906,-0.00034168,0.00015611,-0.00037903,
 0.00117760,0.00106764,-0.00077014,0.00006523,0.00011385,0.00010026,-0.
 00008910,-0.00008110,0.00001589,0.00084013,0.00126923,-0.00010960,-0.0
 0037740,0.01866492,0.02570043,-0.00206766,0.00030799,0.00011646,-0.053
 34958,-0.03064772,-0.03485180,-0.00121641,-0.01939293,-0.02016558,0.00
 018979,0.00342522,0.00421715,0.05625381,-0.00083787,-0.00090032,0.0004
 4186,-0.00056792,0.00052588,-0.00010192,0.00041622,0.00034819,-0.00032
 536,0.00036288,0.00006984,0.00117037,0.00000945,-0.00015388,-0.0002045
 8,-0.00001962,-0.00003339,0.00013242,0.00077682,0.00062795,-0.00026898
 ,0.00077379,0.00739721,0.00913947,-0.00025189,-0.00009220,-0.00032775,
 -0.02702373,-0.17359925,-0.13932014,0.00138852,0.00292850,0.00421864,-
 0.00477159,-0.01326432,-0.02135141,0.02964753,0.17628375,0.00002158,0.
 00571185,0.00074093,-0.00096887,-0.00049455,0.00050454,0.00079187,0.00
 014304,-0.00003297,-0.00075495,-0.00112492,0.00063272,-0.00017349,-0.0
 0011005,-0.00026651,-0.00006552,0.00020415,-0.00016868,-0.00082871,-0.
 00124652,0.00011707,0.00341547,-0.01599081,-0.02355658,0.00175776,-0.0
 0050598,-0.00065193,-0.03027895,-0.13448788,-0.19975309,-0.00026683,-0
 .00679371,-0.00637130,0.00185896,0.00789640,0.01048105,0.02511058,0.14
 671973,0.21816221,0.00871436,0.00442463,0.00842510,-0.12601673,0.01988
 931,-0.08293172,0.00673005,0.00413323,-0.00607446,0.00076073,-0.008820
 40,0.00413419,-0.00056605,0.00009550,-0.00023363,0.00041349,0.00095598
 ,0.00063272,-0.00332510,-0.00383554,-0.00213718,-0.01866124,0.00165951
 ,-0.01272023,-0.00196203,-0.00670164,-0.01300307,-0.00019438,0.0007686
 1,-0.00245648,-0.00057135,-0.00012472,0.00074542,0.00001691,-0.0001841
 1,0.00003370,0.00016138,0.00005163,0.00032980,0.49600620,0.00650818,-0
 .00003220,-0.00783949,0.02344628,-0.08800669,0.01782799,0.02301300,0.0
 0051868,0.01962726,-0.00113190,-0.00831802,0.00422009,-0.00016293,-0.0
 0076374,-0.00033211,0.00054279,0.00011421,-0.00165722,-0.00395866,-0.0
 0296480,0.00184412,-0.00451143,0.00461135,-0.00106050,-0.02777455,0.00
 252481,-0.02188247,-0.00051398,0.00058366,-0.00028127,-0.00012486,-0.0
 0006619,0.00018279,0.00005012,0.00002069,-0.00011318,0.00002458,-0.000
 12499,0.00014350,-0.00408973,0.62194033,-0.00030536,-0.00138213,-0.008
 97448,-0.08131071,0.01053299,-0.18490031,-0.01544040,0.00200175,-0.002
 00547,-0.00118729,0.00446745,-0.00265200,0.00079549,-0.00026222,0.0004
 0625,-0.00017822,-0.00068970,-0.00015708,-0.00065198,0.00010675,0.0016
 8905,0.00139615,0.00040882,0.00785817,-0.02246201,-0.00696880,-0.01109
 265,0.00047792,-0.00016792,0.00017918,0.00001502,-0.00002895,-0.000091
 14,-0.00004161,-0.00002187,-0.00004588,-0.00004743,0.00017162,0.000021
 37,-0.01753632,0.00568922,0.55589368,0.00129785,0.00008147,-0.00210833
 ,0.00232302,-0.01949366,-0.01581360,-0.00012555,-0.00018847,0.00079496
 ,-0.00057305,0.00011554,0.00002750,0.00005427,-0.00006557,-0.00004019,
 0.00001601,-0.00003142,-0.00007787,-0.00064710,-0.00047749,0.00048120,
 0.00029232,0.00039959,0.00066714,-0.00380605,0.00111178,-0.00267015,-0
 .00002069,0.00000526,0.00003046,0.00002185,0.00000592,0.00001521,0.000
 01057,0.00000007,-0.00002349,-0.00000623,0.00004430,0.00004152,-0.0478
 5105,0.03799180,0.03330354,0.05250290,0.00093094,0.00091939,-0.0003181
 1,-0.00534665,0.00184763,0.00304103,-0.00056952,-0.00014255,0.00008233
 ,0.00038092,0.00089019,-0.00042456,-0.00001563,0.00006636,0.00016001,-
 0.00004974,-0.00003776,-0.00009948,-0.00010708,-0.00024223,-0.00001236
 ,0.00097481,-0.00073152,0.00065069,0.00105317,0.00113827,-0.00096475,-
 0.00002148,-0.00004087,0.00022411,0.00002580,0.00000390,-0.00004893,-0
 .00000275,0.00001640,0.00000448,-0.00006029,-0.00003791,-0.00001378,0.
 03832811,-0.19603281,-0.13705213,-0.03834498,0.20145820,0.00180305,0.0
 0027373,-0.00172807,0.01127762,-0.01748977,-0.01361210,0.00024988,-0.0
 0003610,0.00072353,-0.00045895,-0.00050518,0.00043698,-0.00001680,-0.0
 0001734,-0.00004132,-0.00002659,0.00001019,-0.00011299,-0.00118780,-0.
 00078550,0.00026128,-0.00064576,0.00069861,0.00104475,-0.00533835,0.00
 039148,-0.00129107,-0.00029080,0.00013157,-0.00018712,-0.00007523,-0.0
 0007691,0.00007046,0.00001303,0.00000483,0.00000325,-0.00007218,-0.000
 05732,0.00002743,0.03032895,-0.13519820,-0.18015432,-0.03212982,0.1489
 4959,0.18961614,-0.00172787,-0.00041221,0.00014218,-0.00373851,0.02284
 805,-0.01141335,-0.00216687,-0.00024002,-0.00363716,0.00049587,0.00169
 141,-0.00081482,-0.00018976,0.00029764,-0.00003357,-0.00007789,-0.0000
 6220,0.00027541,0.00040841,0.00036671,-0.00015446,0.00168369,-0.000913
 50,0.00053120,0.00148329,-0.00023973,0.00249433,0.00015211,-0.00005493
 ,0.00011439,0.00003527,0.00000052,-0.00004176,-0.00000781,-0.00003857,
 0.00001930,0.00000167,0.00004038,-0.00002441,-0.04209127,-0.01166169,0
 .00548327,-0.00116684,0.00423428,-0.00300024,0.04542764,0.00064249,-0.
 00006905,0.00007829,0.00103266,-0.00119416,-0.00035974,0.00001016,0.00
 082812,0.00063160,-0.00037083,-0.00016139,0.00054219,0.00004795,-0.000
 09337,0.00000876,0.00002735,0.00002365,-0.00007398,-0.00006667,-0.0000
 9246,0.00007511,-0.00045573,0.00047363,-0.00028759,-0.00041911,0.00110
 068,-0.00113980,0.00008078,-0.00001466,-0.00007632,-0.00000372,-0.0000
 1127,0.00000981,0.00003854,-0.00001904,-0.00001827,0.00002275,0.000026
 77,-0.00001085,-0.01026192,-0.28899258,0.10494399,-0.00152262,-0.01217
 086,0.01006301,0.00970174,0.30239798,-0.00148497,0.00033867,0.00112143
 ,0.00435232,0.02432806,-0.00929907,-0.00322092,-0.00126891,-0.00131665
 ,-0.00013080,0.00120968,-0.00052005,-0.00000609,0.00017103,0.00004358,
 -0.00014217,-0.00006345,0.00031935,0.00031979,0.00005497,-0.00032314,-
 0.00000070,-0.00106754,0.00015993,0.00159753,-0.00095116,0.00136494,-0
 .00008283,-0.00007786,-0.00032928,-0.00006354,-0.00002064,0.00008079,-
 0.00003939,-0.00000922,0.00004012,0.00001733,0.00003063,0.00001621,0.0
 0291632,0.10203987,-0.09570698,-0.00176254,-0.01871365,0.01140331,-0.0
 0096309,-0.11431229,0.09738691,0.00088440,0.00101110,0.00125250,-0.023
 83620,-0.00272464,0.00827841,0.00205094,0.00037086,-0.00127476,0.00047
 415,-0.00140287,0.00078933,-0.00019394,0.00013250,-0.00017275,0.000093
 33,0.00027193,0.00013490,-0.00041181,-0.00081415,-0.00028779,0.0003146
 0,-0.00004264,-0.00236809,0.00107699,0.00077996,-0.00133214,-0.0001248
 0,0.00012632,-0.00025968,-0.00006515,-0.00002079,0.00010277,0.00000567
 ,-0.00000632,0.00001822,0.00001448,-0.00003891,0.00003419,-0.27156391,
 -0.03764700,0.09768994,-0.00232224,-0.00140991,-0.00043000,0.00147887,
 0.00149618,-0.00130625,0.29212462,0.00081239,-0.00012949,-0.00024038,-
 0.00014090,-0.00282271,-0.00159324,-0.00112090,-0.00020588,-0.00010137
 ,0.00023493,0.00120432,-0.00052956,0.00009494,-0.00008873,0.00002588,-
 0.00003739,-0.00005904,-0.00003785,-0.00005895,-0.00000800,0.00009290,
 0.00150595,-0.00007047,0.00069342,0.00012345,0.00034645,-0.00113847,0.
 00009974,-0.00007187,0.00026436,0.00006820,-0.00001358,-0.00008713,0.0
 0001631,-0.00000022,-0.00002026,-0.00003830,-0.00000183,-0.00003964,-0
 .03628846,-0.04501170,0.01825113,0.02036850,0.00309617,-0.00635670,-0.
 02555788,-0.00203198,0.00831181,0.03991838,0.04586857,0.00223363,0.001
 85048,0.00280518,-0.02018331,-0.00179274,0.01035803,0.00272811,0.00051
 975,-0.00036414,0.00029931,-0.00234941,0.00095779,-0.00014216,0.000170
 68,-0.00000850,0.00011795,0.00026575,0.00006269,-0.00090787,-0.0012494
 8,-0.00069259,-0.00306128,0.00005504,-0.00251914,0.00039424,-0.0012812
 8,-0.00277757,-0.00022022,0.00021968,-0.00054417,-0.00017502,-0.000075
 87,0.00019351,-0.00001554,-0.00002164,0.00004459,-0.00003320,-0.000067
 27,0.00009755,0.08954691,0.01678960,-0.08026738,0.01926447,0.00453551,
 -0.00646015,0.01102280,-0.00007392,-0.00444141,-0.10086882,-0.01749489
 ,0.08355572\\-0.00000314,-0.00000129,-0.00000002,0.00000105,0.00000071
 ,0.00000139,0.00000335,-0.00000232,-0.00000071,0.00000070,0.00000029,-
 0.00000094,0.00000285,-0.00000237,-0.00000102,0.00000281,0.00000169,-0
 .00000108,-0.00000281,0.00000078,0.00000094,0.00000043,0.00000183,0.00
 000041,-0.00000173,-0.00000231,-0.00000037,-0.00000039,0.00000320,0.00
 000001,-0.00000029,0.00000413,-0.00000065,-0.00000197,0.00000315,0.000
 00054,0.00000003,0.00000339,-0.00000048,-0.00000007,-0.00000261,0.0000
 0060,0.00000077,-0.00000179,-0.00000013,-0.00000169,-0.00000223,0.0000
 0096,0.00000009,-0.00000425,0.00000055\\\@
 The archive entry for this job was punched.


 THIS CURIOUS WORLD WHICH WE INHABIT IS MORE WONDERFUL THAN IT IS CONVENIENT;
 MORE BEAUTIFUL THAN IT IS USEFUL;
 IT IS MORE TO BE ADMIRED THAN IT IS TO BE USED.

                                                                 -- THOREAU
 Job cpu time:       0 days  0 hours 32 minutes 51.9 seconds.
 Elapsed time:       0 days  0 hours  2 minutes  4.2 seconds.
 File lengths (MBytes):  RWF=    149 Int=      0 D2E=      0 Chk=     13 Scr=      1
 Normal termination of Gaussian 16 at Fri Feb 28 18:01:50 2025.
