 Entering Gaussian System, Link 0=/cm/shared/apps/spack/cpu/opt/spack/linux-centos8-zen/gcc-8.3.1/gaussian-16.C.01-po5bqktfeugvmjyga3v7eigbecnokxng/g16/g16
 Initial command:
 /cm/shared/apps/spack/cpu/opt/spack/linux-centos8-zen/gcc-8.3.1/gaussian-16.C.01-po5bqktfeugvmjyga3v7eigbecnokxng/g16/l1.exe "/scratch/amaertens/job_34458479/Gau-706729.inp" -scrdir="/scratch/amaertens/job_34458479/"
 Entering Link 1 = /cm/shared/apps/spack/cpu/opt/spack/linux-centos8-zen/gcc-8.3.1/gaussian-16.C.01-po5bqktfeugvmjyga3v7eigbecnokxng/g16/l1.exe PID=    706730.
  
 Copyright (c) 1988-2019, Gaussian, Inc.  All Rights Reserved.
  
 This is part of the Gaussian(R) 16 program.  It is based on
 the Gaussian(R) 09 system (copyright 2009, Gaussian, Inc.),
 the Gaussian(R) 03 system (copyright 2003, Gaussian, Inc.),
 the Gaussian(R) 98 system (copyright 1998, Gaussian, Inc.),
 the Gaussian(R) 94 system (copyright 1995, Gaussian, Inc.),
 the Gaussian 92(TM) system (copyright 1992, Gaussian, Inc.),
 the Gaussian 90(TM) system (copyright 1990, Gaussian, Inc.),
 the Gaussian 88(TM) system (copyright 1988, Gaussian, Inc.),
 the Gaussian 86(TM) system (copyright 1986, Carnegie Mellon
 University), and the Gaussian 82(TM) system (copyright 1983,
 Carnegie Mellon University). Gaussian is a federally registered
 trademark of Gaussian, Inc.
  
 This software contains proprietary and confidential information,
 including trade secrets, belonging to Gaussian, Inc.
  
 This software is provided under written license and may be
 used, copied, transmitted, or stored only in accord with that
 written license.
  
 The following legend is applicable only to US Government
 contracts under FAR:
  
                    RESTRICTED RIGHTS LEGEND
  
 Use, reproduction and disclosure by the US Government is
 subject to restrictions as set forth in subparagraphs (a)
 and (c) of the Commercial Computer Software - Restricted
 Rights clause in FAR 52.227-19.
  
 Gaussian, Inc.
 340 Quinnipiac St., Bldg. 40, Wallingford CT 06492
  
  
 ---------------------------------------------------------------
 Warning -- This program may not be used in any manner that
 competes with the business of Gaussian, Inc. or will provide
 assistance to any competitor of Gaussian, Inc.  The licensee
 of this program is prohibited from giving any competitor of
 Gaussian, Inc. access to this program.  By using this program,
 the user acknowledges that Gaussian, Inc. is engaged in the
 business of creating and licensing software in the field of
 computational chemistry and represents and warrants to the
 licensee that it is not a competitor of Gaussian, Inc. and that
 it will not use this program in any manner prohibited above.
 ---------------------------------------------------------------
  

 Cite this work as:
 Gaussian 16, Revision C.01,
 M. J. Frisch, G. W. Trucks, H. B. Schlegel, G. E. Scuseria, 
 M. A. Robb, J. R. Cheeseman, G. Scalmani, V. Barone, 
 G. A. Petersson, H. Nakatsuji, X. Li, M. Caricato, A. V. Marenich, 
 J. Bloino, B. G. Janesko, R. Gomperts, B. Mennucci, H. P. Hratchian, 
 J. V. Ortiz, A. F. Izmaylov, J. L. Sonnenberg, D. Williams-Young, 
 F. Ding, F. Lipparini, F. Egidi, J. Goings, B. Peng, A. Petrone, 
 T. Henderson, D. Ranasinghe, V. G. Zakrzewski, J. Gao, N. Rega, 
 G. Zheng, W. Liang, M. Hada, M. Ehara, K. Toyota, R. Fukuda, 
 J. Hasegawa, M. Ishida, T. Nakajima, Y. Honda, O. Kitao, H. Nakai, 
 T. Vreven, K. Throssell, J. A. Montgomery, Jr., J. E. Peralta, 
 F. Ogliaro, M. J. Bearpark, J. J. Heyd, E. N. Brothers, K. N. Kudin, 
 V. N. Staroverov, T. A. Keith, R. Kobayashi, J. Normand, 
 K. Raghavachari, A. P. Rendell, J. C. Burant, S. S. Iyengar, 
 J. Tomasi, M. Cossi, J. M. Millam, M. Klene, C. Adamo, R. Cammi, 
 J. W. Ochterski, R. L. Martin, K. Morokuma, O. Farkas, 
 J. B. Foresman, and D. J. Fox, Gaussian, Inc., Wallingford CT, 2019.
 
 ******************************************
 Gaussian 16:  ES64L-G16RevC.01  3-Jul-2019
                11-Oct-2024 
 ******************************************
 %nproc=4
 Will use up to    4 processors via shared memory.
 %mem=96GB
 %chk=AJM_573.chk
 ------------------------------------
 # opt freq PBE1PBE/cc-pvdz emp=gd3bj
 ------------------------------------
 1/18=20,19=15,26=3,38=1/1,3;
 2/9=110,12=2,17=6,18=5,40=1/2;
 3/5=16,11=2,25=1,30=1,71=1,74=-13,124=41/1,2,3;
 4//1;
 5/5=2,38=5/2;
 6/7=2,8=2,9=2,10=2,28=1/1;
 7//1,2,3,16;
 1/18=20,19=15,26=3/3(2);
 2/9=110/2;
 99//99;
 2/9=110/2;
 3/5=16,11=2,25=1,30=1,71=1,74=-13,124=41/1,2,3;
 4/5=5,16=3,69=1/1;
 5/5=2,38=5/2;
 7//1,2,3,16;
 1/18=20,19=15,26=3/3(-5);
 2/9=110/2;
 6/7=2,8=2,9=2,10=2,19=2,28=1/1;
 99/9=1/99;
 -------------------
 Title Card Required
 -------------------
 Symbolic Z-matrix:
 Charge =  0 Multiplicity = 1
 S                    -3.10507  -0.76641   1.98819 
 O                    -1.71123  -0.44554  -1.61939 
 N                    -2.93734  -0.46533   0.27943 
 C                    -0.49015  -0.39684   0.42924 
 H                    -0.5474   -0.24034   1.50826 
 O                    -2.49934   0.32487   2.74547 
 C                    -1.72509  -0.44012  -0.40072 
 O                    -2.73287  -2.15253   2.26327 
 S                     3.27281  -1.61408  -1.49029 
 O                     1.95053  -0.14875   1.83396 
 N                     3.14214  -0.74438   0.00683 
 C                     0.70408  -0.54112  -0.16017 
 H                     0.7566   -0.68938  -1.23998 
 O                     2.28225  -2.68715  -1.51249 
 C                     1.94492  -0.47115   0.65943 
 O                     3.34882  -0.66937  -2.60342 
 C                     4.42606  -0.55619   0.71431 
 H                     4.35172  -1.07713   1.68056 
 C                     4.82184   0.89663   0.86434 
 C                     4.34909   1.83044   1.78792 
 H                     3.59201   1.54177   2.51742 
 C                     4.85801   3.13252   1.74168 
 H                     4.50381   3.87782   2.45765 
 C                     5.81919   3.48776   0.787 
 H                     6.20868   4.50856   0.76508 
 C                     6.28904   2.54738  -0.13641 
 H                     7.04098   2.82845  -0.87817 
 C                     5.7856    1.24695  -0.09179 
 C                     6.11657   0.07536  -0.98264 
 H                     5.61781   0.1906   -1.95901 
 H                     7.19541  -0.03439  -1.17248 
 C                     5.54012  -1.13835  -0.21099 
 H                     6.32311  -1.57034   0.42839 
 C                     4.92356  -2.23015  -1.07282 
 H                     5.44465  -2.42575  -2.01926 
 H                     4.75391  -3.16891  -0.5282 
 C                    -4.89935  -0.62175   1.89304 
 H                    -5.12284   0.45206   1.96672 
 H                    -5.31111  -1.16418   2.75386 
 C                    -4.18673  -0.6717   -0.46338 
 H                    -3.98022  -1.38899  -1.27339 
 C                    -5.26423  -1.20719   0.53014 
 H                    -5.24037  -2.30338   0.58934 
 C                    -6.60588  -0.65741   0.00053 
 H                    -7.06752  -1.3854   -0.68883 
 H                    -7.33589  -0.47475   0.80496 
 C                    -6.19972   0.59548  -0.74271 
 C                    -4.82509   0.58713  -1.01593 
 C                    -4.22711   1.62576  -1.7299 
 H                    -3.16094   1.59388  -1.95761 
 C                    -6.39852   2.71239  -1.87005 
 H                    -7.00801   3.55601  -2.20283 
 C                    -6.99555   1.6604   -1.16676 
 H                    -8.06708   1.67653  -0.95113 
 C                    -5.02635   2.69383  -2.15098 
 H                    -4.57584   3.5206   -2.70502 
 

 GradGradGradGradGradGradGradGradGradGradGradGradGradGradGradGradGradGrad
 Berny optimization.
 Initialization pass.
                           ----------------------------
                           !    Initial Parameters    !
                           ! (Angstroms and Degrees)  !
 --------------------------                            --------------------------
 ! Name  Definition              Value          Derivative Info.                !
 --------------------------------------------------------------------------------
 ! R1    R(1,3)                  1.7432         estimate D2E/DX2                !
 ! R2    R(1,6)                  1.4599         estimate D2E/DX2                !
 ! R3    R(1,8)                  1.4613         estimate D2E/DX2                !
 ! R4    R(1,37)                 1.8026         estimate D2E/DX2                !
 ! R5    R(2,7)                  1.2188         estimate D2E/DX2                !
 ! R6    R(3,7)                  1.3903         estimate D2E/DX2                !
 ! R7    R(3,40)                 1.4681         estimate D2E/DX2                !
 ! R8    R(4,5)                  1.0918         estimate D2E/DX2                !
 ! R9    R(4,7)                  1.4886         estimate D2E/DX2                !
 ! R10   R(4,12)                 1.3396         estimate D2E/DX2                !
 ! R11   R(9,11)                 1.7363         estimate D2E/DX2                !
 ! R12   R(9,14)                 1.4605         estimate D2E/DX2                !
 ! R13   R(9,16)                 1.462          estimate D2E/DX2                !
 ! R14   R(9,34)                 1.8107         estimate D2E/DX2                !
 ! R15   R(10,15)                1.218          estimate D2E/DX2                !
 ! R16   R(11,15)                1.3906         estimate D2E/DX2                !
 ! R17   R(11,17)                1.478          estimate D2E/DX2                !
 ! R18   R(12,13)                1.0912         estimate D2E/DX2                !
 ! R19   R(12,15)                1.4887         estimate D2E/DX2                !
 ! R20   R(17,18)                1.1002         estimate D2E/DX2                !
 ! R21   R(17,19)                1.5132         estimate D2E/DX2                !
 ! R22   R(17,32)                1.5608         estimate D2E/DX2                !
 ! R23   R(19,20)                1.3959         estimate D2E/DX2                !
 ! R24   R(19,28)                1.402          estimate D2E/DX2                !
 ! R25   R(20,21)                1.0903         estimate D2E/DX2                !
 ! R26   R(20,22)                1.3988         estimate D2E/DX2                !
 ! R27   R(22,23)                1.0925         estimate D2E/DX2                !
 ! R28   R(22,24)                1.4005         estimate D2E/DX2                !
 ! R29   R(24,25)                1.0928         estimate D2E/DX2                !
 ! R30   R(24,26)                1.3992         estimate D2E/DX2                !
 ! R31   R(26,27)                1.093          estimate D2E/DX2                !
 ! R32   R(26,28)                1.3952         estimate D2E/DX2                !
 ! R33   R(28,29)                1.5086         estimate D2E/DX2                !
 ! R34   R(29,30)                1.1024         estimate D2E/DX2                !
 ! R35   R(29,31)                1.1009         estimate D2E/DX2                !
 ! R36   R(29,32)                1.5495         estimate D2E/DX2                !
 ! R37   R(32,33)                1.0993         estimate D2E/DX2                !
 ! R38   R(32,34)                1.5215         estimate D2E/DX2                !
 ! R39   R(34,35)                1.098          estimate D2E/DX2                !
 ! R40   R(34,36)                1.0985         estimate D2E/DX2                !
 ! R41   R(37,38)                1.0993         estimate D2E/DX2                !
 ! R42   R(37,39)                1.0976         estimate D2E/DX2                !
 ! R43   R(37,42)                1.5275         estimate D2E/DX2                !
 ! R44   R(40,41)                1.1015         estimate D2E/DX2                !
 ! R45   R(40,42)                1.5604         estimate D2E/DX2                !
 ! R46   R(40,48)                1.5157         estimate D2E/DX2                !
 ! R47   R(42,43)                1.0981         estimate D2E/DX2                !
 ! R48   R(42,44)                1.5436         estimate D2E/DX2                !
 ! R49   R(44,45)                1.1038         estimate D2E/DX2                !
 ! R50   R(44,46)                1.1015         estimate D2E/DX2                !
 ! R51   R(44,47)                1.5123         estimate D2E/DX2                !
 ! R52   R(47,48)                1.4015         estimate D2E/DX2                !
 ! R53   R(47,53)                1.3954         estimate D2E/DX2                !
 ! R54   R(48,49)                1.395          estimate D2E/DX2                !
 ! R55   R(49,50)                1.0907         estimate D2E/DX2                !
 ! R56   R(49,55)                1.3989         estimate D2E/DX2                !
 ! R57   R(51,52)                1.0927         estimate D2E/DX2                !
 ! R58   R(51,53)                1.3992         estimate D2E/DX2                !
 ! R59   R(51,55)                1.4008         estimate D2E/DX2                !
 ! R60   R(53,54)                1.0931         estimate D2E/DX2                !
 ! R61   R(55,56)                1.0925         estimate D2E/DX2                !
 ! A1    A(3,1,6)              109.8435         estimate D2E/DX2                !
 ! A2    A(3,1,8)              108.8954         estimate D2E/DX2                !
 ! A3    A(3,1,37)              91.7293         estimate D2E/DX2                !
 ! A4    A(6,1,8)              120.378          estimate D2E/DX2                !
 ! A5    A(6,1,37)             112.3579         estimate D2E/DX2                !
 ! A6    A(8,1,37)             109.8513         estimate D2E/DX2                !
 ! A7    A(1,3,7)              124.514          estimate D2E/DX2                !
 ! A8    A(1,3,40)             112.9424         estimate D2E/DX2                !
 ! A9    A(7,3,40)             119.8072         estimate D2E/DX2                !
 ! A10   A(5,4,7)              120.7771         estimate D2E/DX2                !
 ! A11   A(5,4,12)             119.8041         estimate D2E/DX2                !
 ! A12   A(7,4,12)             119.4165         estimate D2E/DX2                !
 ! A13   A(2,7,3)              119.9357         estimate D2E/DX2                !
 ! A14   A(2,7,4)              123.245          estimate D2E/DX2                !
 ! A15   A(3,7,4)              116.8178         estimate D2E/DX2                !
 ! A16   A(11,9,14)            109.2729         estimate D2E/DX2                !
 ! A17   A(11,9,16)            109.679          estimate D2E/DX2                !
 ! A18   A(11,9,34)             92.3062         estimate D2E/DX2                !
 ! A19   A(14,9,16)            119.8973         estimate D2E/DX2                !
 ! A20   A(14,9,34)            111.8281         estimate D2E/DX2                !
 ! A21   A(16,9,34)            110.3652         estimate D2E/DX2                !
 ! A22   A(9,11,15)            124.5994         estimate D2E/DX2                !
 ! A23   A(9,11,17)            114.2761         estimate D2E/DX2                !
 ! A24   A(15,11,17)           119.883          estimate D2E/DX2                !
 ! A25   A(4,12,13)            119.5352         estimate D2E/DX2                !
 ! A26   A(4,12,15)            119.7203         estimate D2E/DX2                !
 ! A27   A(13,12,15)           120.7337         estimate D2E/DX2                !
 ! A28   A(10,15,11)           120.0382         estimate D2E/DX2                !
 ! A29   A(10,15,12)           123.173          estimate D2E/DX2                !
 ! A30   A(11,15,12)           116.7422         estimate D2E/DX2                !
 ! A31   A(11,17,18)           107.5414         estimate D2E/DX2                !
 ! A32   A(11,17,19)           113.3856         estimate D2E/DX2                !
 ! A33   A(11,17,32)           106.785          estimate D2E/DX2                !
 ! A34   A(18,17,19)           112.655          estimate D2E/DX2                !
 ! A35   A(18,17,32)           113.0944         estimate D2E/DX2                !
 ! A36   A(19,17,32)           103.3082         estimate D2E/DX2                !
 ! A37   A(17,19,20)           128.2644         estimate D2E/DX2                !
 ! A38   A(17,19,28)           110.6137         estimate D2E/DX2                !
 ! A39   A(20,19,28)           121.1217         estimate D2E/DX2                !
 ! A40   A(19,20,21)           120.0509         estimate D2E/DX2                !
 ! A41   A(19,20,22)           118.5312         estimate D2E/DX2                !
 ! A42   A(21,20,22)           121.4147         estimate D2E/DX2                !
 ! A43   A(20,22,23)           119.6974         estimate D2E/DX2                !
 ! A44   A(20,22,24)           120.5542         estimate D2E/DX2                !
 ! A45   A(23,22,24)           119.7483         estimate D2E/DX2                !
 ! A46   A(22,24,25)           119.6842         estimate D2E/DX2                !
 ! A47   A(22,24,26)           120.6535         estimate D2E/DX2                !
 ! A48   A(25,24,26)           119.662          estimate D2E/DX2                !
 ! A49   A(24,26,27)           120.4027         estimate D2E/DX2                !
 ! A50   A(24,26,28)           118.9576         estimate D2E/DX2                !
 ! A51   A(27,26,28)           120.6394         estimate D2E/DX2                !
 ! A52   A(19,28,26)           120.1816         estimate D2E/DX2                !
 ! A53   A(19,28,29)           111.0674         estimate D2E/DX2                !
 ! A54   A(26,28,29)           128.7428         estimate D2E/DX2                !
 ! A55   A(28,29,30)           110.0335         estimate D2E/DX2                !
 ! A56   A(28,29,31)           113.2196         estimate D2E/DX2                !
 ! A57   A(28,29,32)           103.4519         estimate D2E/DX2                !
 ! A58   A(30,29,31)           107.5206         estimate D2E/DX2                !
 ! A59   A(30,29,32)           110.7707         estimate D2E/DX2                !
 ! A60   A(31,29,32)           111.8614         estimate D2E/DX2                !
 ! A61   A(17,32,29)           105.5817         estimate D2E/DX2                !
 ! A62   A(17,32,33)           108.0683         estimate D2E/DX2                !
 ! A63   A(17,32,34)           108.3128         estimate D2E/DX2                !
 ! A64   A(29,32,33)           109.4192         estimate D2E/DX2                !
 ! A65   A(29,32,34)           115.5162         estimate D2E/DX2                !
 ! A66   A(33,32,34)           109.639          estimate D2E/DX2                !
 ! A67   A(9,34,32)            104.8253         estimate D2E/DX2                !
 ! A68   A(9,34,35)            107.1295         estimate D2E/DX2                !
 ! A69   A(9,34,36)            105.3239         estimate D2E/DX2                !
 ! A70   A(32,34,35)           115.073          estimate D2E/DX2                !
 ! A71   A(32,34,36)           113.2657         estimate D2E/DX2                !
 ! A72   A(35,34,36)           110.3914         estimate D2E/DX2                !
 ! A73   A(1,37,38)            106.0942         estimate D2E/DX2                !
 ! A74   A(1,37,39)            106.9985         estimate D2E/DX2                !
 ! A75   A(1,37,42)            104.7204         estimate D2E/DX2                !
 ! A76   A(38,37,39)           110.7257         estimate D2E/DX2                !
 ! A77   A(38,37,42)           112.6819         estimate D2E/DX2                !
 ! A78   A(39,37,42)           114.8799         estimate D2E/DX2                !
 ! A79   A(3,40,41)            107.7016         estimate D2E/DX2                !
 ! A80   A(3,40,42)            108.2853         estimate D2E/DX2                !
 ! A81   A(3,40,48)            115.2211         estimate D2E/DX2                !
 ! A82   A(41,40,42)           111.976          estimate D2E/DX2                !
 ! A83   A(41,40,48)           110.5915         estimate D2E/DX2                !
 ! A84   A(42,40,48)           103.0791         estimate D2E/DX2                !
 ! A85   A(37,42,40)           105.7603         estimate D2E/DX2                !
 ! A86   A(37,42,43)           109.2274         estimate D2E/DX2                !
 ! A87   A(37,42,44)           112.1625         estimate D2E/DX2                !
 ! A88   A(40,42,43)           111.2178         estimate D2E/DX2                !
 ! A89   A(40,42,44)           105.0404         estimate D2E/DX2                !
 ! A90   A(43,42,44)           113.1375         estimate D2E/DX2                !
 ! A91   A(42,44,45)           110.0535         estimate D2E/DX2                !
 ! A92   A(42,44,46)           112.6131         estimate D2E/DX2                !
 ! A93   A(42,44,47)           103.3122         estimate D2E/DX2                !
 ! A94   A(45,44,46)           106.7557         estimate D2E/DX2                !
 ! A95   A(45,44,47)           110.5973         estimate D2E/DX2                !
 ! A96   A(46,44,47)           113.5471         estimate D2E/DX2                !
 ! A97   A(44,47,48)           110.7494         estimate D2E/DX2                !
 ! A98   A(44,47,53)           128.9335         estimate D2E/DX2                !
 ! A99   A(48,47,53)           120.309          estimate D2E/DX2                !
 ! A100  A(40,48,47)           110.3005         estimate D2E/DX2                !
 ! A101  A(40,48,49)           128.6364         estimate D2E/DX2                !
 ! A102  A(47,48,49)           121.0484         estimate D2E/DX2                !
 ! A103  A(48,49,50)           120.2725         estimate D2E/DX2                !
 ! A104  A(48,49,55)           118.5292         estimate D2E/DX2                !
 ! A105  A(50,49,55)           121.1964         estimate D2E/DX2                !
 ! A106  A(52,51,53)           119.7068         estimate D2E/DX2                !
 ! A107  A(52,51,55)           119.7068         estimate D2E/DX2                !
 ! A108  A(53,51,55)           120.5864         estimate D2E/DX2                !
 ! A109  A(47,53,51)           118.8928         estimate D2E/DX2                !
 ! A110  A(47,53,54)           120.6878         estimate D2E/DX2                !
 ! A111  A(51,53,54)           120.419          estimate D2E/DX2                !
 ! A112  A(49,55,51)           120.6256         estimate D2E/DX2                !
 ! A113  A(49,55,56)           119.6611         estimate D2E/DX2                !
 ! A114  A(51,55,56)           119.7133         estimate D2E/DX2                !
 ! D1    D(6,1,3,7)             66.1079         estimate D2E/DX2                !
 ! D2    D(6,1,3,40)          -132.7796         estimate D2E/DX2                !
 ! D3    D(8,1,3,7)            -67.6625         estimate D2E/DX2                !
 ! D4    D(8,1,3,40)            93.4499         estimate D2E/DX2                !
 ! D5    D(37,1,3,7)          -179.3423         estimate D2E/DX2                !
 ! D6    D(37,1,3,40)          -18.2299         estimate D2E/DX2                !
 ! D7    D(3,1,37,38)          -84.5141         estimate D2E/DX2                !
 ! D8    D(3,1,37,39)          157.2333         estimate D2E/DX2                !
 ! D9    D(3,1,37,42)           34.8769         estimate D2E/DX2                !
 ! D10   D(6,1,37,38)           27.7966         estimate D2E/DX2                !
 ! D11   D(6,1,37,39)          -90.456          estimate D2E/DX2                !
 ! D12   D(6,1,37,42)          147.1876         estimate D2E/DX2                !
 ! D13   D(8,1,37,38)          164.6706         estimate D2E/DX2                !
 ! D14   D(8,1,37,39)           46.418          estimate D2E/DX2                !
 ! D15   D(8,1,37,42)          -75.9384         estimate D2E/DX2                !
 ! D16   D(1,3,7,2)            167.7355         estimate D2E/DX2                !
 ! D17   D(1,3,7,4)            -12.7139         estimate D2E/DX2                !
 ! D18   D(40,3,7,2)             7.8292         estimate D2E/DX2                !
 ! D19   D(40,3,7,4)          -172.6201         estimate D2E/DX2                !
 ! D20   D(1,3,40,41)         -125.3766         estimate D2E/DX2                !
 ! D21   D(1,3,40,42)           -4.1            estimate D2E/DX2                !
 ! D22   D(1,3,40,48)          110.6767         estimate D2E/DX2                !
 ! D23   D(7,3,40,41)           36.7206         estimate D2E/DX2                !
 ! D24   D(7,3,40,42)          157.9972         estimate D2E/DX2                !
 ! D25   D(7,3,40,48)          -87.2261         estimate D2E/DX2                !
 ! D26   D(5,4,7,2)            170.6096         estimate D2E/DX2                !
 ! D27   D(5,4,7,3)             -8.9248         estimate D2E/DX2                !
 ! D28   D(12,4,7,2)            -8.842          estimate D2E/DX2                !
 ! D29   D(12,4,7,3)           171.6237         estimate D2E/DX2                !
 ! D30   D(5,4,12,13)         -179.5156         estimate D2E/DX2                !
 ! D31   D(5,4,12,15)           -0.7025         estimate D2E/DX2                !
 ! D32   D(7,4,12,13)           -0.0587         estimate D2E/DX2                !
 ! D33   D(7,4,12,15)          178.7545         estimate D2E/DX2                !
 ! D34   D(14,9,11,15)         -37.0889         estimate D2E/DX2                !
 ! D35   D(14,9,11,17)         130.1034         estimate D2E/DX2                !
 ! D36   D(16,9,11,15)          96.2134         estimate D2E/DX2                !
 ! D37   D(16,9,11,17)         -96.5944         estimate D2E/DX2                !
 ! D38   D(34,9,11,15)        -151.1869         estimate D2E/DX2                !
 ! D39   D(34,9,11,17)          16.0053         estimate D2E/DX2                !
 ! D40   D(11,9,34,32)         -31.0383         estimate D2E/DX2                !
 ! D41   D(11,9,34,35)        -153.7417         estimate D2E/DX2                !
 ! D42   D(11,9,34,36)          88.7099         estimate D2E/DX2                !
 ! D43   D(14,9,34,32)        -142.8759         estimate D2E/DX2                !
 ! D44   D(14,9,34,35)          94.4207         estimate D2E/DX2                !
 ! D45   D(14,9,34,36)         -23.1278         estimate D2E/DX2                !
 ! D46   D(16,9,34,32)          80.9516         estimate D2E/DX2                !
 ! D47   D(16,9,34,35)         -41.7518         estimate D2E/DX2                !
 ! D48   D(16,9,34,36)        -159.3002         estimate D2E/DX2                !
 ! D49   D(9,11,15,10)         162.4613         estimate D2E/DX2                !
 ! D50   D(9,11,15,12)         -19.944          estimate D2E/DX2                !
 ! D51   D(17,11,15,10)         -4.061          estimate D2E/DX2                !
 ! D52   D(17,11,15,12)        173.5337         estimate D2E/DX2                !
 ! D53   D(9,11,17,18)        -117.4918         estimate D2E/DX2                !
 ! D54   D(9,11,17,19)         117.2816         estimate D2E/DX2                !
 ! D55   D(9,11,17,32)           4.1783         estimate D2E/DX2                !
 ! D56   D(15,11,17,18)         50.3591         estimate D2E/DX2                !
 ! D57   D(15,11,17,19)        -74.8675         estimate D2E/DX2                !
 ! D58   D(15,11,17,32)        172.0292         estimate D2E/DX2                !
 ! D59   D(4,12,15,10)          -7.922          estimate D2E/DX2                !
 ! D60   D(4,12,15,11)         174.5658         estimate D2E/DX2                !
 ! D61   D(13,12,15,10)        170.8766         estimate D2E/DX2                !
 ! D62   D(13,12,15,11)         -6.6356         estimate D2E/DX2                !
 ! D63   D(11,17,19,20)         78.9506         estimate D2E/DX2                !
 ! D64   D(11,17,19,28)       -100.9229         estimate D2E/DX2                !
 ! D65   D(18,17,19,20)        -43.4828         estimate D2E/DX2                !
 ! D66   D(18,17,19,28)        136.6437         estimate D2E/DX2                !
 ! D67   D(32,17,19,20)       -165.8608         estimate D2E/DX2                !
 ! D68   D(32,17,19,28)         14.2657         estimate D2E/DX2                !
 ! D69   D(11,17,32,29)         96.6611         estimate D2E/DX2                !
 ! D70   D(11,17,32,33)       -146.3356         estimate D2E/DX2                !
 ! D71   D(11,17,32,34)        -27.6268         estimate D2E/DX2                !
 ! D72   D(18,17,32,29)       -145.249          estimate D2E/DX2                !
 ! D73   D(18,17,32,33)        -28.2457         estimate D2E/DX2                !
 ! D74   D(18,17,32,34)         90.4632         estimate D2E/DX2                !
 ! D75   D(19,17,32,29)        -23.1651         estimate D2E/DX2                !
 ! D76   D(19,17,32,33)         93.8382         estimate D2E/DX2                !
 ! D77   D(19,17,32,34)       -147.4529         estimate D2E/DX2                !
 ! D78   D(17,19,20,21)         -0.4809         estimate D2E/DX2                !
 ! D79   D(17,19,20,22)       -179.843          estimate D2E/DX2                !
 ! D80   D(28,19,20,21)        179.3808         estimate D2E/DX2                !
 ! D81   D(28,19,20,22)          0.0187         estimate D2E/DX2                !
 ! D82   D(17,19,28,26)        179.7453         estimate D2E/DX2                !
 ! D83   D(17,19,28,29)          0.6956         estimate D2E/DX2                !
 ! D84   D(20,19,28,26)         -0.1386         estimate D2E/DX2                !
 ! D85   D(20,19,28,29)       -179.1883         estimate D2E/DX2                !
 ! D86   D(19,20,22,23)       -179.7988         estimate D2E/DX2                !
 ! D87   D(19,20,22,24)          0.0878         estimate D2E/DX2                !
 ! D88   D(21,20,22,23)          0.8481         estimate D2E/DX2                !
 ! D89   D(21,20,22,24)       -179.2652         estimate D2E/DX2                !
 ! D90   D(20,22,24,25)       -179.8677         estimate D2E/DX2                !
 ! D91   D(20,22,24,26)         -0.0761         estimate D2E/DX2                !
 ! D92   D(23,22,24,25)          0.0188         estimate D2E/DX2                !
 ! D93   D(23,22,24,26)        179.8105         estimate D2E/DX2                !
 ! D94   D(22,24,26,27)       -179.8539         estimate D2E/DX2                !
 ! D95   D(22,24,26,28)         -0.0435         estimate D2E/DX2                !
 ! D96   D(25,24,26,27)         -0.0622         estimate D2E/DX2                !
 ! D97   D(25,24,26,28)        179.7482         estimate D2E/DX2                !
 ! D98   D(24,26,28,19)          0.149          estimate D2E/DX2                !
 ! D99   D(24,26,28,29)        179.012          estimate D2E/DX2                !
 ! D100  D(27,26,28,19)        179.9589         estimate D2E/DX2                !
 ! D101  D(27,26,28,29)         -1.1781         estimate D2E/DX2                !
 ! D102  D(19,28,29,30)        102.9158         estimate D2E/DX2                !
 ! D103  D(19,28,29,31)       -136.7455         estimate D2E/DX2                !
 ! D104  D(19,28,29,32)        -15.4652         estimate D2E/DX2                !
 ! D105  D(26,28,29,30)        -76.031          estimate D2E/DX2                !
 ! D106  D(26,28,29,31)         44.3077         estimate D2E/DX2                !
 ! D107  D(26,28,29,32)        165.588          estimate D2E/DX2                !
 ! D108  D(28,29,32,17)         23.5459         estimate D2E/DX2                !
 ! D109  D(28,29,32,33)        -92.5397         estimate D2E/DX2                !
 ! D110  D(28,29,32,34)        143.1861         estimate D2E/DX2                !
 ! D111  D(30,29,32,17)        -94.3222         estimate D2E/DX2                !
 ! D112  D(30,29,32,33)        149.5922         estimate D2E/DX2                !
 ! D113  D(30,29,32,34)         25.3181         estimate D2E/DX2                !
 ! D114  D(31,29,32,17)        145.7377         estimate D2E/DX2                !
 ! D115  D(31,29,32,33)         29.652          estimate D2E/DX2                !
 ! D116  D(31,29,32,34)        -94.6221         estimate D2E/DX2                !
 ! D117  D(17,32,34,9)          38.1911         estimate D2E/DX2                !
 ! D118  D(17,32,34,35)        155.5915         estimate D2E/DX2                !
 ! D119  D(17,32,34,36)        -76.1003         estimate D2E/DX2                !
 ! D120  D(29,32,34,9)         -79.9405         estimate D2E/DX2                !
 ! D121  D(29,32,34,35)         37.46           estimate D2E/DX2                !
 ! D122  D(29,32,34,36)        165.7682         estimate D2E/DX2                !
 ! D123  D(33,32,34,9)         155.9            estimate D2E/DX2                !
 ! D124  D(33,32,34,35)        -86.6995         estimate D2E/DX2                !
 ! D125  D(33,32,34,36)         41.6086         estimate D2E/DX2                !
 ! D126  D(1,37,42,40)         -41.6792         estimate D2E/DX2                !
 ! D127  D(1,37,42,43)          78.1027         estimate D2E/DX2                !
 ! D128  D(1,37,42,44)        -155.6397         estimate D2E/DX2                !
 ! D129  D(38,37,42,40)         73.184          estimate D2E/DX2                !
 ! D130  D(38,37,42,43)       -167.0341         estimate D2E/DX2                !
 ! D131  D(38,37,42,44)        -40.7764         estimate D2E/DX2                !
 ! D132  D(39,37,42,40)       -158.7463         estimate D2E/DX2                !
 ! D133  D(39,37,42,43)        -38.9644         estimate D2E/DX2                !
 ! D134  D(39,37,42,44)         87.2933         estimate D2E/DX2                !
 ! D135  D(3,40,42,37)          29.6948         estimate D2E/DX2                !
 ! D136  D(3,40,42,43)         -88.7709         estimate D2E/DX2                !
 ! D137  D(3,40,42,44)         148.492          estimate D2E/DX2                !
 ! D138  D(41,40,42,37)        148.2929         estimate D2E/DX2                !
 ! D139  D(41,40,42,43)         29.8271         estimate D2E/DX2                !
 ! D140  D(41,40,42,44)        -92.91           estimate D2E/DX2                !
 ! D141  D(48,40,42,37)        -92.8183         estimate D2E/DX2                !
 ! D142  D(48,40,42,43)        148.716          estimate D2E/DX2                !
 ! D143  D(48,40,42,44)         25.9789         estimate D2E/DX2                !
 ! D144  D(3,40,48,47)        -133.8098         estimate D2E/DX2                !
 ! D145  D(3,40,48,49)          47.5937         estimate D2E/DX2                !
 ! D146  D(41,40,48,47)        103.7783         estimate D2E/DX2                !
 ! D147  D(41,40,48,49)        -74.8182         estimate D2E/DX2                !
 ! D148  D(42,40,48,47)        -16.0689         estimate D2E/DX2                !
 ! D149  D(42,40,48,49)        165.3346         estimate D2E/DX2                !
 ! D150  D(37,42,44,45)       -153.797          estimate D2E/DX2                !
 ! D151  D(37,42,44,46)        -34.8173         estimate D2E/DX2                !
 ! D152  D(37,42,44,47)         88.0898         estimate D2E/DX2                !
 ! D153  D(40,42,44,45)         91.8009         estimate D2E/DX2                !
 ! D154  D(40,42,44,46)       -149.2194         estimate D2E/DX2                !
 ! D155  D(40,42,44,47)        -26.3123         estimate D2E/DX2                !
 ! D156  D(43,42,44,45)        -29.6893         estimate D2E/DX2                !
 ! D157  D(43,42,44,46)         89.2904         estimate D2E/DX2                !
 ! D158  D(43,42,44,47)       -147.8025         estimate D2E/DX2                !
 ! D159  D(42,44,47,48)         17.2082         estimate D2E/DX2                !
 ! D160  D(42,44,47,53)       -163.8387         estimate D2E/DX2                !
 ! D161  D(45,44,47,48)       -100.5248         estimate D2E/DX2                !
 ! D162  D(45,44,47,53)         78.4282         estimate D2E/DX2                !
 ! D163  D(46,44,47,48)        139.4929         estimate D2E/DX2                !
 ! D164  D(46,44,47,53)        -41.554          estimate D2E/DX2                !
 ! D165  D(44,47,48,40)         -0.6016         estimate D2E/DX2                !
 ! D166  D(44,47,48,49)        178.1188         estimate D2E/DX2                !
 ! D167  D(53,47,48,40)       -179.6582         estimate D2E/DX2                !
 ! D168  D(53,47,48,49)         -0.9379         estimate D2E/DX2                !
 ! D169  D(44,47,53,51)       -178.6706         estimate D2E/DX2                !
 ! D170  D(44,47,53,54)          1.5518         estimate D2E/DX2                !
 ! D171  D(48,47,53,51)          0.1954         estimate D2E/DX2                !
 ! D172  D(48,47,53,54)       -179.5823         estimate D2E/DX2                !
 ! D173  D(40,48,49,50)          0.0404         estimate D2E/DX2                !
 ! D174  D(40,48,49,55)        179.5453         estimate D2E/DX2                !
 ! D175  D(47,48,49,50)       -178.4232         estimate D2E/DX2                !
 ! D176  D(47,48,49,55)          1.0818         estimate D2E/DX2                !
 ! D177  D(48,49,55,51)         -0.5085         estimate D2E/DX2                !
 ! D178  D(48,49,55,56)        179.5528         estimate D2E/DX2                !
 ! D179  D(50,49,55,51)        178.9917         estimate D2E/DX2                !
 ! D180  D(50,49,55,56)         -0.947          estimate D2E/DX2                !
 ! D181  D(52,51,53,47)       -179.6117         estimate D2E/DX2                !
 ! D182  D(52,51,53,54)          0.1666         estimate D2E/DX2                !
 ! D183  D(55,51,53,47)          0.3712         estimate D2E/DX2                !
 ! D184  D(55,51,53,54)       -179.8505         estimate D2E/DX2                !
 ! D185  D(52,51,55,49)        179.769          estimate D2E/DX2                !
 ! D186  D(52,51,55,56)         -0.2923         estimate D2E/DX2                !
 ! D187  D(53,51,55,49)         -0.2138         estimate D2E/DX2                !
 ! D188  D(53,51,55,56)        179.7249         estimate D2E/DX2                !
 --------------------------------------------------------------------------------
 Trust Radius=3.00D-01 FncErr=1.00D-07 GrdErr=1.00D-06 EigMax=2.50D+02 EigMin=1.00D-04
 Number of steps in this run=    336 maximum allowed number of steps=    336.
 GradGradGradGradGradGradGradGradGradGradGradGradGradGradGradGradGradGrad

 Stoichiometry    C24H22N2O6S2
 Framework group  C1[X(C24H22N2O6S2)]
 Deg. of freedom   162
 Full point group                 C1      NOp   1
 Largest Abelian subgroup         C1      NOp   1
 Largest concise Abelian subgroup C1      NOp   1
                         Standard orientation:                         
 ---------------------------------------------------------------------
 Center     Atomic      Atomic             Coordinates (Angstroms)
 Number     Number       Type             X           Y           Z
 ---------------------------------------------------------------------
      1         16           0       -3.105074   -0.766411    1.988186
      2          8           0       -1.711228   -0.445544   -1.619387
      3          7           0       -2.937339   -0.465333    0.279428
      4          6           0       -0.490148   -0.396836    0.429241
      5          1           0       -0.547397   -0.240335    1.508260
      6          8           0       -2.499336    0.324868    2.745469
      7          6           0       -1.725086   -0.440122   -0.400724
      8          8           0       -2.732867   -2.152532    2.263267
      9         16           0        3.272812   -1.614077   -1.490287
     10          8           0        1.950529   -0.148753    1.833959
     11          7           0        3.142135   -0.744380    0.006831
     12          6           0        0.704077   -0.541122   -0.160169
     13          1           0        0.756601   -0.689379   -1.239975
     14          8           0        2.282246   -2.687145   -1.512491
     15          6           0        1.944920   -0.471151    0.659425
     16          8           0        3.348820   -0.669372   -2.603417
     17          6           0        4.426061   -0.556186    0.714306
     18          1           0        4.351720   -1.077132    1.680555
     19          6           0        4.821838    0.896628    0.864337
     20          6           0        4.349088    1.830436    1.787916
     21          1           0        3.592007    1.541773    2.517424
     22          6           0        4.858009    3.132515    1.741677
     23          1           0        4.503809    3.877818    2.457654
     24          6           0        5.819189    3.487761    0.787004
     25          1           0        6.208677    4.508562    0.765084
     26          6           0        6.289040    2.547381   -0.136405
     27          1           0        7.040975    2.828445   -0.878171
     28          6           0        5.785602    1.246953   -0.091788
     29          6           0        6.116571    0.075363   -0.982637
     30          1           0        5.617812    0.190596   -1.959012
     31          1           0        7.195405   -0.034394   -1.172477
     32          6           0        5.540118   -1.138349   -0.210990
     33          1           0        6.323108   -1.570336    0.428385
     34          6           0        4.923557   -2.230154   -1.072818
     35          1           0        5.444646   -2.425746   -2.019260
     36          1           0        4.753907   -3.168911   -0.528195
     37          6           0       -4.899348   -0.621747    1.893039
     38          1           0       -5.122837    0.452058    1.966723
     39          1           0       -5.311110   -1.164179    2.753861
     40          6           0       -4.186730   -0.671703   -0.463375
     41          1           0       -3.980217   -1.388991   -1.273391
     42          6           0       -5.264231   -1.207186    0.530143
     43          1           0       -5.240374   -2.303380    0.589341
     44          6           0       -6.605877   -0.657411    0.000527
     45          1           0       -7.067520   -1.385401   -0.688831
     46          1           0       -7.335885   -0.474746    0.804959
     47          6           0       -6.199721    0.595479   -0.742708
     48          6           0       -4.825090    0.587132   -1.015933
     49          6           0       -4.227109    1.625758   -1.729897
     50          1           0       -3.160940    1.593879   -1.957610
     51          6           0       -6.398520    2.712386   -1.870047
     52          1           0       -7.008008    3.556009   -2.202825
     53          6           0       -6.995550    1.660397   -1.166761
     54          1           0       -8.067078    1.676530   -0.951128
     55          6           0       -5.026354    2.693829   -2.150985
     56          1           0       -4.575835    3.520599   -2.705024
 ---------------------------------------------------------------------
 Rotational constants (GHZ):           0.2237962           0.0485059           0.0478210
 Standard basis: CC-pVDZ (5D, 7F)
 There are   628 symmetry adapted cartesian basis functions of A   symmetry.
 There are   594 symmetry adapted basis functions of A   symmetry.
   594 basis functions,  1352 primitive gaussians,   628 cartesian basis functions
   130 alpha electrons      130 beta electrons
       nuclear repulsion energy      3931.1125085905 Hartrees.
 NAtoms=   56 NActive=   56 NUniq=   56 SFac= 1.00D+00 NAtFMM=   60 NAOKFM=F Big=F
 Integral buffers will be    131072 words long.
 Raffenetti 2 integral format.
 Two-electron integral symmetry is turned on.
 Nuclear repulsion after empirical dispersion term =     3931.0340280244 Hartrees.
 One-electron integrals computed using PRISM.
 NBasis=   594 RedAO= T EigKep=  2.58D-04  NBF=   594
 NBsUse=   594 1.00D-06 EigRej= -1.00D+00 NBFU=   594
 ExpMin= 1.22D-01 ExpMax= 1.11D+05 ExpMxC= 1.07D+03 IAcc=3 IRadAn=         5 AccDes= 0.00D+00
 Harris functional with IExCor= 1009 and IRadAn=       5 diagonalized for initial guess.
 HarFok:  IExCor= 1009 AccDes= 0.00D+00 IRadAn=         5 IDoV= 1 UseB2=F ITyADJ=14
 ICtDFT=  3500011 ScaDFX=  1.000000  1.000000  1.000000  1.000000
 FoFCou: FMM=F IPFlag=           0 FMFlag=      100000 FMFlg1=           0
         NFxFlg=           0 DoJE=T BraDBF=F KetDBF=T FulRan=T
         wScrn=  0.000000 ICntrl=       500 IOpCl=  0 I1Cent=   200000004 NGrid=           0
         NMat0=    1 NMatS0=      1 NMatT0=    0 NMatD0=    1 NMtDS0=    0 NMtDT0=    0
 Petite list used in FoFCou.
 Requested convergence on RMS density matrix=1.00D-08 within 128 cycles.
 Requested convergence on MAX density matrix=1.00D-06.
 Requested convergence on             energy=1.00D-06.
 No special actions if energy rises.
 Integral accuracy reduced to 1.0D-05 until final iterations.
 Initial convergence to 1.0D-05 achieved.  Increase integral accuracy.
 SCF Done:  E(RPBE1PBE) =  -2283.15381473     A.U. after   15 cycles
            NFock= 15  Conv=0.57D-08     -V/T= 2.0046

 **********************************************************************

            Population analysis using the SCF Density.

 **********************************************************************

 Orbital symmetries:
       Occupied  (A) (A) (A) (A) (A) (A) (A) (A) (A) (A) (A) (A)
                 (A) (A) (A) (A) (A) (A) (A) (A) (A) (A) (A) (A)
                 (A) (A) (A) (A) (A) (A) (A) (A) (A) (A) (A) (A)
                 (A) (A) (A) (A) (A) (A) (A) (A) (A) (A) (A) (A)
                 (A) (A) (A) (A) (A) (A) (A) (A) (A) (A) (A) (A)
                 (A) (A) (A) (A) (A) (A) (A) (A) (A) (A) (A) (A)
                 (A) (A) (A) (A) (A) (A) (A) (A) (A) (A) (A) (A)
                 (A) (A) (A) (A) (A) (A) (A) (A) (A) (A) (A) (A)
                 (A) (A) (A) (A) (A) (A) (A) (A) (A) (A) (A) (A)
                 (A) (A) (A) (A) (A) (A) (A) (A) (A) (A) (A) (A)
                 (A) (A) (A) (A) (A) (A) (A) (A) (A) (A)
       Virtual   (A) (A) (A) (A) (A) (A) (A) (A) (A) (A) (A) (A)
                 (A) (A) (A) (A) (A) (A) (A) (A) (A) (A) (A) (A)
                 (A) (A) (A) (A) (A) (A) (A) (A) (A) (A) (A) (A)
                 (A) (A) (A) (A) (A) (A) (A) (A) (A) (A) (A) (A)
                 (A) (A) (A) (A) (A) (A) (A) (A) (A) (A) (A) (A)
                 (A) (A) (A) (A) (A) (A) (A) (A) (A) (A) (A) (A)
                 (A) (A) (A) (A) (A) (A) (A) (A) (A) (A) (A) (A)
                 (A) (A) (A) (A) (A) (A) (A) (A) (A) (A) (A) (A)
                 (A) (A) (A) (A) (A) (A) (A) (A) (A) (A) (A) (A)
                 (A) (A) (A) (A) (A) (A) (A) (A) (A) (A) (A) (A)
                 (A) (A) (A) (A) (A) (A) (A) (A) (A) (A) (A) (A)
                 (A) (A) (A) (A) (A) (A) (A) (A) (A) (A) (A) (A)
                 (A) (A) (A) (A) (A) (A) (A) (A) (A) (A) (A) (A)
                 (A) (A) (A) (A) (A) (A) (A) (A) (A) (A) (A) (A)
                 (A) (A) (A) (A) (A) (A) (A) (A) (A) (A) (A) (A)
                 (A) (A) (A) (A) (A) (A) (A) (A) (A) (A) (A) (A)
                 (A) (A) (A) (A) (A) (A) (A) (A) (A) (A) (A) (A)
                 (A) (A) (A) (A) (A) (A) (A) (A) (A) (A) (A) (A)
                 (A) (A) (A) (A) (A) (A) (A) (A) (A) (A) (A) (A)
                 (A) (A) (A) (A) (A) (A) (A) (A) (A) (A) (A) (A)
                 (A) (A) (A) (A) (A) (A) (A) (A) (A) (A) (A) (A)
                 (A) (A) (A) (A) (A) (A) (A) (A) (A) (A) (A) (A)
                 (A) (A) (A) (A) (A) (A) (A) (A) (A) (A) (A) (A)
                 (A) (A) (A) (A) (A) (A) (A) (A) (A) (A) (A) (A)
                 (A) (A) (A) (A) (A) (A) (A) (A) (A) (A) (A) (A)
                 (A) (A) (A) (A) (A) (A) (A) (A) (A) (A) (A) (A)
                 (A) (A) (A) (A) (A) (A) (A) (A) (A) (A) (A) (A)
                 (A) (A) (A) (A) (A) (A) (A) (A) (A) (A) (A) (A)
                 (A) (A) (A) (A) (A) (A) (A) (A) (A) (A) (A) (A)
                 (A) (A) (A) (A) (A) (A) (A) (A) (A) (A) (A) (A)
                 (A) (A) (A) (A) (A) (A) (A) (A) (A) (A) (A) (A)
                 (A) (A) (A) (A) (A) (A) (A) (A) (A) (A) (A) (A)
                 (A) (A) (A) (A) (A) (A) (A) (A) (A) (A) (A) (A)
                 (A) (A) (A) (A) (A) (A) (A) (A) (A) (A) (A) (A)
                 (A) (A) (A) (A) (A) (A) (A) (A) (A) (A) (A) (A)
                 (A) (A) (A) (A) (A) (A) (A) (A) (A) (A) (A) (A)
                 (A) (A) (A) (A) (A) (A) (A) (A) (A) (A) (A) (A)
                 (A) (A) (A) (A) (A) (A) (A) (A) (A) (A) (A) (A)
                 (A) (A) (A) (A) (A) (A) (A) (A)
 The electronic state is 1-A.
 Alpha  occ. eigenvalues --  -89.27793 -89.27651 -19.22481 -19.22416 -19.22318
 Alpha  occ. eigenvalues --  -19.22144 -19.20682 -19.20536 -14.45367 -14.45288
 Alpha  occ. eigenvalues --  -10.35821 -10.35771 -10.30279 -10.30268 -10.29595
 Alpha  occ. eigenvalues --  -10.29345 -10.28296 -10.28296 -10.26478 -10.26266
 Alpha  occ. eigenvalues --  -10.26102 -10.25586 -10.25405 -10.25136 -10.25090
 Alpha  occ. eigenvalues --  -10.24916 -10.24828 -10.24700 -10.24563 -10.24480
 Alpha  occ. eigenvalues --  -10.24469 -10.24366 -10.24111 -10.24046  -8.21849
 Alpha  occ. eigenvalues --   -8.21733  -6.15521  -6.15431  -6.15404  -6.15311
 Alpha  occ. eigenvalues --   -6.15271  -6.15151  -1.15785  -1.15727  -1.09022
 Alpha  occ. eigenvalues --   -1.08866  -1.04448  -1.04424  -0.98546  -0.98459
 Alpha  occ. eigenvalues --   -0.91209  -0.90588  -0.86948  -0.86713  -0.83363
 Alpha  occ. eigenvalues --   -0.81782  -0.81746  -0.79281  -0.78748  -0.74753
 Alpha  occ. eigenvalues --   -0.74487  -0.73996  -0.73292  -0.70392  -0.68665
 Alpha  occ. eigenvalues --   -0.66195  -0.64036  -0.63539  -0.63002  -0.60883
 Alpha  occ. eigenvalues --   -0.60652  -0.60363  -0.57888  -0.56939  -0.55312
 Alpha  occ. eigenvalues --   -0.54958  -0.53889  -0.53187  -0.52152  -0.51622
 Alpha  occ. eigenvalues --   -0.51187  -0.50689  -0.49878  -0.49029  -0.48718
 Alpha  occ. eigenvalues --   -0.48419  -0.47718  -0.47566  -0.47205  -0.46928
 Alpha  occ. eigenvalues --   -0.46809  -0.45957  -0.45769  -0.44967  -0.44744
 Alpha  occ. eigenvalues --   -0.44553  -0.43483  -0.43016  -0.42599  -0.42458
 Alpha  occ. eigenvalues --   -0.41979  -0.41393  -0.40705  -0.39646  -0.38956
 Alpha  occ. eigenvalues --   -0.38694  -0.38307  -0.37386  -0.37278  -0.37100
 Alpha  occ. eigenvalues --   -0.36988  -0.35956  -0.35640  -0.35564  -0.35107
 Alpha  occ. eigenvalues --   -0.34669  -0.34630  -0.32880  -0.32745  -0.32478
 Alpha  occ. eigenvalues --   -0.32183  -0.29749  -0.28977  -0.28558  -0.28192
 Alpha  occ. eigenvalues --   -0.28108  -0.26953  -0.26593  -0.26272  -0.25782
 Alpha virt. eigenvalues --   -0.07764  -0.01780  -0.01434  -0.01035  -0.00752
 Alpha virt. eigenvalues --    0.02457   0.04017   0.04340   0.04945   0.05275
 Alpha virt. eigenvalues --    0.05950   0.06528   0.06959   0.07286   0.07366
 Alpha virt. eigenvalues --    0.07666   0.08244   0.08681   0.09371   0.09946
 Alpha virt. eigenvalues --    0.10214   0.11018   0.11468   0.12102   0.12394
 Alpha virt. eigenvalues --    0.12463   0.12705   0.13263   0.13449   0.14089
 Alpha virt. eigenvalues --    0.14530   0.14978   0.15493   0.15802   0.16480
 Alpha virt. eigenvalues --    0.16809   0.17343   0.17420   0.17692   0.18188
 Alpha virt. eigenvalues --    0.18839   0.19233   0.19476   0.21692   0.22002
 Alpha virt. eigenvalues --    0.23251   0.24005   0.24239   0.24720   0.25051
 Alpha virt. eigenvalues --    0.26227   0.27198   0.29332   0.29944   0.30243
 Alpha virt. eigenvalues --    0.30799   0.31253   0.31503   0.32087   0.32463
 Alpha virt. eigenvalues --    0.33053   0.33750   0.34073   0.35086   0.38759
 Alpha virt. eigenvalues --    0.38972   0.40402   0.41101   0.41423   0.41729
 Alpha virt. eigenvalues --    0.42498   0.42611   0.43440   0.43971   0.44476
 Alpha virt. eigenvalues --    0.44730   0.45178   0.45657   0.46664   0.46900
 Alpha virt. eigenvalues --    0.47297   0.47587   0.47960   0.48433   0.49156
 Alpha virt. eigenvalues --    0.49340   0.49697   0.50050   0.50733   0.50885
 Alpha virt. eigenvalues --    0.51056   0.51254   0.51540   0.52015   0.52188
 Alpha virt. eigenvalues --    0.52457   0.52817   0.53100   0.53119   0.53838
 Alpha virt. eigenvalues --    0.54594   0.55006   0.55407   0.55546   0.56405
 Alpha virt. eigenvalues --    0.56757   0.56831   0.57951   0.58294   0.58996
 Alpha virt. eigenvalues --    0.59520   0.59630   0.59781   0.60250   0.60695
 Alpha virt. eigenvalues --    0.61255   0.61585   0.61782   0.62071   0.62659
 Alpha virt. eigenvalues --    0.62797   0.63091   0.63527   0.63729   0.64272
 Alpha virt. eigenvalues --    0.64404   0.64902   0.65309   0.65430   0.65693
 Alpha virt. eigenvalues --    0.65879   0.66198   0.66640   0.67013   0.67169
 Alpha virt. eigenvalues --    0.67544   0.68035   0.68590   0.68987   0.69502
 Alpha virt. eigenvalues --    0.70043   0.70323   0.70464   0.70974   0.71991
 Alpha virt. eigenvalues --    0.72392   0.72992   0.73177   0.73530   0.73664
 Alpha virt. eigenvalues --    0.75138   0.76070   0.76737   0.77499   0.78224
 Alpha virt. eigenvalues --    0.79080   0.79700   0.79842   0.80113   0.80750
 Alpha virt. eigenvalues --    0.81841   0.82103   0.83041   0.84051   0.85835
 Alpha virt. eigenvalues --    0.86191   0.86956   0.87434   0.87968   0.89156
 Alpha virt. eigenvalues --    0.89655   0.90049   0.90776   0.91478   0.91889
 Alpha virt. eigenvalues --    0.92329   0.92785   0.93836   0.94094   0.94222
 Alpha virt. eigenvalues --    0.94584   0.94943   0.95215   0.96125   0.97136
 Alpha virt. eigenvalues --    0.97536   0.99426   0.99751   1.00584   1.01058
 Alpha virt. eigenvalues --    1.01650   1.02002   1.02303   1.02910   1.03256
 Alpha virt. eigenvalues --    1.03360   1.04211   1.04518   1.04841   1.05037
 Alpha virt. eigenvalues --    1.05774   1.05948   1.06568   1.07226   1.07863
 Alpha virt. eigenvalues --    1.08143   1.08924   1.10096   1.10886   1.11403
 Alpha virt. eigenvalues --    1.12045   1.12343   1.12883   1.13829   1.14647
 Alpha virt. eigenvalues --    1.14975   1.15925   1.16229   1.17069   1.18136
 Alpha virt. eigenvalues --    1.18359   1.19012   1.19525   1.19728   1.22540
 Alpha virt. eigenvalues --    1.22937   1.23475   1.23958   1.24846   1.25517
 Alpha virt. eigenvalues --    1.26776   1.27453   1.28133   1.28626   1.29359
 Alpha virt. eigenvalues --    1.30500   1.30749   1.31947   1.32396   1.34102
 Alpha virt. eigenvalues --    1.35378   1.36228   1.36624   1.36968   1.38095
 Alpha virt. eigenvalues --    1.38399   1.39446   1.40075   1.41769   1.42294
 Alpha virt. eigenvalues --    1.44479   1.44729   1.45674   1.46597   1.46950
 Alpha virt. eigenvalues --    1.47352   1.47959   1.49111   1.49152   1.49451
 Alpha virt. eigenvalues --    1.49725   1.50760   1.51168   1.51949   1.52245
 Alpha virt. eigenvalues --    1.53250   1.53758   1.55200   1.55646   1.56085
 Alpha virt. eigenvalues --    1.56808   1.57252   1.57499   1.58019   1.58262
 Alpha virt. eigenvalues --    1.58964   1.59284   1.60034   1.61092   1.61205
 Alpha virt. eigenvalues --    1.61645   1.62226   1.62707   1.63564   1.63773
 Alpha virt. eigenvalues --    1.64280   1.64543   1.64895   1.65328   1.65660
 Alpha virt. eigenvalues --    1.66015   1.66525   1.67237   1.67802   1.68390
 Alpha virt. eigenvalues --    1.68801   1.69430   1.69847   1.70195   1.70745
 Alpha virt. eigenvalues --    1.71706   1.72017   1.72297   1.73180   1.73585
 Alpha virt. eigenvalues --    1.74653   1.75167   1.75867   1.77111   1.77469
 Alpha virt. eigenvalues --    1.77993   1.78330   1.78939   1.79073   1.79858
 Alpha virt. eigenvalues --    1.80096   1.80416   1.82023   1.82432   1.82775
 Alpha virt. eigenvalues --    1.83481   1.84029   1.84881   1.85484   1.85793
 Alpha virt. eigenvalues --    1.86068   1.86275   1.86721   1.87110   1.88094
 Alpha virt. eigenvalues --    1.88445   1.88655   1.89287   1.89727   1.90301
 Alpha virt. eigenvalues --    1.91006   1.91389   1.91500   1.92231   1.92726
 Alpha virt. eigenvalues --    1.92934   1.93812   1.95108   1.96033   1.97001
 Alpha virt. eigenvalues --    1.98051   1.98505   1.99404   1.99958   2.00725
 Alpha virt. eigenvalues --    2.01000   2.01552   2.02723   2.03494   2.03839
 Alpha virt. eigenvalues --    2.05824   2.06147   2.06381   2.07240   2.09158
 Alpha virt. eigenvalues --    2.09356   2.10065   2.11657   2.11976   2.12893
 Alpha virt. eigenvalues --    2.13331   2.14877   2.15137   2.16107   2.16538
 Alpha virt. eigenvalues --    2.17059   2.17785   2.18602   2.19245   2.20310
 Alpha virt. eigenvalues --    2.21100   2.23251   2.23690   2.24295   2.24716
 Alpha virt. eigenvalues --    2.25030   2.26508   2.27792   2.28376   2.29176
 Alpha virt. eigenvalues --    2.30127   2.32013   2.32753   2.35073   2.35974
 Alpha virt. eigenvalues --    2.36943   2.38577   2.39816   2.40155   2.40489
 Alpha virt. eigenvalues --    2.41176   2.41863   2.41901   2.43605   2.45270
 Alpha virt. eigenvalues --    2.45841   2.47684   2.48023   2.49027   2.50004
 Alpha virt. eigenvalues --    2.50307   2.51210   2.53266   2.56148   2.57666
 Alpha virt. eigenvalues --    2.58907   2.60569   2.61147   2.61294   2.61546
 Alpha virt. eigenvalues --    2.61724   2.62652   2.63338   2.63901   2.64425
 Alpha virt. eigenvalues --    2.66081   2.66716   2.67529   2.68054   2.68886
 Alpha virt. eigenvalues --    2.69311   2.70175   2.70442   2.71206   2.71561
 Alpha virt. eigenvalues --    2.71901   2.72712   2.73491   2.73844   2.76051
 Alpha virt. eigenvalues --    2.76625   2.77709   2.77906   2.78488   2.79558
 Alpha virt. eigenvalues --    2.80110   2.82317   2.83136   2.86438   2.87374
 Alpha virt. eigenvalues --    2.88254   2.89640   2.89823   2.98759   2.99060
 Alpha virt. eigenvalues --    3.05101   3.06404   3.09465   3.11573   3.28777
 Alpha virt. eigenvalues --    3.29447   3.36087   3.36923   3.42009   3.49868
 Alpha virt. eigenvalues --    3.50465   3.50912   3.51638   3.56507
          Condensed to atoms (all electrons):
 Mulliken charges:
               1
     1  S    0.934454
     2  O   -0.265156
     3  N   -0.484485
     4  C   -0.061813
     5  H    0.064614
     6  O   -0.429230
     7  C    0.344628
     8  O   -0.427000
     9  S    0.928718
    10  O   -0.259459
    11  N   -0.478420
    12  C   -0.043233
    13  H    0.060467
    14  O   -0.429825
    15  C    0.357203
    16  O   -0.421701
    17  C    0.065783
    18  H    0.053659
    19  C    0.050327
    20  C   -0.005090
    21  H    0.017560
    22  C    0.008280
    23  H    0.009603
    24  C    0.013806
    25  H    0.008253
    26  C   -0.037076
    27  H   -0.009510
    28  C   -0.090781
    29  C    0.088901
    30  H    0.079520
    31  H    0.052816
    32  C   -0.188811
    33  H    0.052016
    34  C   -0.074912
    35  H    0.099136
    36  H    0.098014
    37  C   -0.076317
    38  H    0.102303
    39  H    0.101554
    40  C    0.092977
    41  H    0.071565
    42  C   -0.183386
    43  H    0.038637
    44  C    0.081014
    45  H    0.070859
    46  H    0.047958
    47  C   -0.085682
    48  C    0.046367
    49  C   -0.008923
    50  H    0.018778
    51  C    0.013618
    52  H    0.009327
    53  C   -0.035148
    54  H   -0.008734
    55  C    0.010873
    56  H    0.011104
 Sum of Mulliken charges =  -0.00000
 Mulliken charges with hydrogens summed into heavy atoms:
               1
     1  S    0.934454
     2  O   -0.265156
     3  N   -0.484485
     4  C    0.002801
     6  O   -0.429230
     7  C    0.344628
     8  O   -0.427000
     9  S    0.928718
    10  O   -0.259459
    11  N   -0.478420
    12  C    0.017234
    14  O   -0.429825
    15  C    0.357203
    16  O   -0.421701
    17  C    0.119441
    19  C    0.050327
    20  C    0.012470
    22  C    0.017883
    24  C    0.022060
    26  C   -0.046586
    28  C   -0.090781
    29  C    0.221237
    32  C   -0.136795
    34  C    0.122238
    37  C    0.127540
    40  C    0.164543
    42  C   -0.144749
    44  C    0.199830
    47  C   -0.085682
    48  C    0.046367
    49  C    0.009856
    51  C    0.022945
    53  C   -0.043882
    55  C    0.021977
 Electronic spatial extent (au):  <R**2>=          22642.6260
 Charge=              0.0000 electrons
 Dipole moment (field-independent basis, Debye):
    X=             -0.4081    Y=             -0.0229    Z=              0.1847  Tot=              0.4485
 Quadrupole moment (field-independent basis, Debye-Ang):
   XX=           -129.5570   YY=           -202.1325   ZZ=           -224.6730
   XY=             -6.7684   XZ=             -6.0475   YZ=             -2.1191
 Traceless Quadrupole moment (field-independent basis, Debye-Ang):
   XX=             55.8972   YY=            -16.6783   ZZ=            -39.2188
   XY=             -6.7684   XZ=             -6.0475   YZ=             -2.1191
 Octapole moment (field-independent basis, Debye-Ang**2):
  XXX=            -68.7969  YYY=             15.4452  ZZZ=             16.1506  XYY=             39.4411
  XXY=            -72.1187  XXZ=             -2.3218  XZZ=             -7.6849  YZZ=              4.6424
  YYZ=            -13.2217  XYZ=             22.4434
 Hexadecapole moment (field-independent basis, Debye-Ang**3):
 XXXX=         -21416.8388 YYYY=          -3190.7836 ZZZZ=          -2857.2327 XXXY=           -275.6405
 XXXZ=           -727.8276 YYYX=            -12.6068 YYYZ=             18.7120 ZZZX=           -158.5848
 ZZZY=              5.0686 XXYY=          -4159.4274 XXZZ=          -4571.6926 YYZZ=           -972.4120
 XXYZ=            -95.8806 YYXZ=             95.1097 ZZXY=            -41.6143
 N-N= 3.931034028024D+03 E-N=-1.322118273912D+04  KE= 2.272666799282D+03
 Calling FoFJK, ICntrl=      2127 FMM=F ISym2X=0 I1Cent= 0 IOpClX= 0 NMat=1 NMatS=1 NMatT=0.
 ***** Axes restored to original set *****
 -------------------------------------------------------------------
 Center     Atomic                   Forces (Hartrees/Bohr)
 Number     Number              X              Y              Z
 -------------------------------------------------------------------
      1       16          -0.011151142    0.001410992   -0.009177697
      2        8          -0.000286366    0.000276484    0.000773256
      3        7          -0.001020519    0.001235902   -0.000348406
      4        6           0.000716093   -0.000075789   -0.001371230
      5        1           0.000031205    0.000196164    0.000538950
      6        8           0.004389792    0.007298785    0.004763777
      7        6           0.000424640   -0.001244636    0.001822211
      8        8           0.002871198   -0.009658147    0.002150844
      9       16           0.009803993   -0.000176193    0.010448427
     10        8           0.000339752    0.000178895   -0.000847120
     11        7           0.001089547    0.001442345    0.000269239
     12        6          -0.000736544   -0.000086173    0.001376091
     13        1          -0.000239623   -0.000106933   -0.000412623
     14        8          -0.006713847   -0.006823915   -0.000135456
     15        6          -0.000437814   -0.001088291   -0.001788807
     16        8           0.000719981    0.006707633   -0.007624845
     17        6           0.000510397    0.000072317   -0.002556132
     18        1          -0.000109847   -0.000023596   -0.000269764
     19        6           0.000358051    0.000495669   -0.001876938
     20        6           0.002450542    0.000814712   -0.002127406
     21        1           0.000017809    0.000092278   -0.000129686
     22        6           0.001154090   -0.002397778   -0.002214448
     23        1           0.000187329   -0.000470163   -0.000413241
     24        6          -0.001277325   -0.003417390    0.000001854
     25        1          -0.000197703   -0.000599412   -0.000008982
     26        6          -0.001915614   -0.000604361    0.002158745
     27        1          -0.000371880   -0.000094303    0.000394244
     28        6          -0.001119563   -0.001019183    0.000975090
     29        6          -0.001747188   -0.000254620    0.003196434
     30        1          -0.000321464   -0.000024227    0.000196713
     31        1          -0.000647276   -0.000066616    0.000460213
     32        6          -0.002909968    0.003198239   -0.001113551
     33        1          -0.000319186    0.000148199   -0.000037123
     34        6          -0.002107239    0.003617063    0.001551732
     35        1          -0.000371784    0.000449655    0.000110440
     36        1          -0.000172699    0.000234811    0.000022902
     37        6           0.002269056   -0.000163099   -0.003676847
     38        1           0.000112446    0.000320205   -0.000276409
     39        1           0.000487049   -0.000142424   -0.000374246
     40        6          -0.001275994    0.000865575    0.002383401
     41        1           0.000237702    0.000193458    0.000155960
     42        6           0.001456707    0.003628118   -0.000799778
     43        1          -0.000034653    0.000255247   -0.000260361
     44        6           0.003595214    0.001375041   -0.000308576
     45        1           0.000542162    0.000499117    0.000216281
     46        1           0.000622768    0.000053087   -0.000160044
     47        6           0.001618664   -0.000661221    0.000172508
     48        6          -0.001042332    0.000246704    0.001059332
     49        6          -0.003342304    0.000242866    0.000404339
     50        1          -0.000112162    0.000010066    0.000148515
     51        6           0.001954772   -0.002807761    0.001179676
     52        1           0.000323695   -0.000493689    0.000213707
     53        6           0.002808851    0.000183500   -0.000817608
     54        1           0.000532901    0.000044649   -0.000104450
     55        6          -0.001406469   -0.002789414    0.001753993
     56        1          -0.000237905   -0.000498441    0.000332899
 -------------------------------------------------------------------
 Cartesian Forces:  Max     0.011151142 RMS     0.002514281

 GradGradGradGradGradGradGradGradGradGradGradGradGradGradGradGradGradGrad
 Berny optimization.
 FormGI is forming the generalized inverse of G from B-inverse, IUseBI=4.
 Internal  Forces:  Max     0.010297466 RMS     0.001675989
 Search for a local minimum.
 Step number   1 out of a maximum of  336
 All quantities printed in internal units (Hartrees-Bohrs-Radians)
 Mixed Optimization -- RFO/linear search
 Second derivative matrix not updated -- first step.
 ITU=  0
     Eigenvalues ---    0.00503   0.00510   0.00588   0.00635   0.00915
     Eigenvalues ---    0.00917   0.00939   0.00972   0.01049   0.01124
     Eigenvalues ---    0.01284   0.01312   0.01353   0.01356   0.01545
     Eigenvalues ---    0.01561   0.01816   0.01821   0.01891   0.01893
     Eigenvalues ---    0.02087   0.02089   0.02094   0.02095   0.02096
     Eigenvalues ---    0.02097   0.02125   0.02125   0.02126   0.02129
     Eigenvalues ---    0.02129   0.02131   0.02511   0.02593   0.02888
     Eigenvalues ---    0.03301   0.03514   0.03647   0.03672   0.04413
     Eigenvalues ---    0.04476   0.04781   0.04960   0.04968   0.05105
     Eigenvalues ---    0.05244   0.05252   0.05389   0.05702   0.05784
     Eigenvalues ---    0.06059   0.06243   0.06279   0.06988   0.07194
     Eigenvalues ---    0.07239   0.07530   0.07974   0.08008   0.08013
     Eigenvalues ---    0.08101   0.08208   0.08367   0.09484   0.09649
     Eigenvalues ---    0.10441   0.10454   0.11830   0.11922   0.11988
     Eigenvalues ---    0.12060   0.15998   0.15999   0.15999   0.16000
     Eigenvalues ---    0.16000   0.16000   0.16000   0.16000   0.16000
     Eigenvalues ---    0.16000   0.16677   0.17161   0.19197   0.19677
     Eigenvalues ---    0.22000   0.22000   0.22000   0.22000   0.22249
     Eigenvalues ---    0.22577   0.22608   0.22659   0.23138   0.24024
     Eigenvalues ---    0.24502   0.24596   0.24651   0.24978   0.24984
     Eigenvalues ---    0.24999   0.25000   0.25000   0.25030   0.25537
     Eigenvalues ---    0.26842   0.27105   0.28143   0.28615   0.29390
     Eigenvalues ---    0.29647   0.30260   0.30669   0.30864   0.31007
     Eigenvalues ---    0.33269   0.33415   0.33512   0.33518   0.33583
     Eigenvalues ---    0.33589   0.33609   0.33655   0.33722   0.33758
     Eigenvalues ---    0.33761   0.33851   0.33899   0.33907   0.33945
     Eigenvalues ---    0.34454   0.34470   0.34491   0.34506   0.34525
     Eigenvalues ---    0.34530   0.34604   0.34674   0.34710   0.34734
     Eigenvalues ---    0.34782   0.39543   0.39559   0.41956   0.41972
     Eigenvalues ---    0.44321   0.44356   0.45686   0.45704   0.46081
     Eigenvalues ---    0.46120   0.46240   0.46266   0.47209   0.47275
     Eigenvalues ---    0.57306   0.90795   0.91046   0.91381   0.91655
     Eigenvalues ---    0.95938   0.96279
 RFO step:  Lambda=-2.47080573D-03 EMin= 5.02664681D-03
 Linear search not attempted -- first point.
 Iteration  1 RMS(Cart)=  0.02951609 RMS(Int)=  0.00013758
 Iteration  2 RMS(Cart)=  0.00040725 RMS(Int)=  0.00001859
 Iteration  3 RMS(Cart)=  0.00000010 RMS(Int)=  0.00001859
 Variable       Old X    -DE/DX   Delta X   Delta X   Delta X     New X
                                 (Linear)    (Quad)   (Total)
    R1        3.29411  -0.00276   0.00000  -0.00828  -0.00828   3.28583
    R2        2.75880   0.00975   0.00000   0.01061   0.01061   2.76940
    R3        2.76155   0.01030   0.00000   0.01128   0.01128   2.77283
    R4        3.40644  -0.00422   0.00000  -0.01673  -0.01673   3.38970
    R5        2.30311  -0.00078   0.00000  -0.00081  -0.00081   2.30230
    R6        2.62719  -0.00434   0.00000  -0.00913  -0.00913   2.61806
    R7        2.77431  -0.00497   0.00000  -0.01322  -0.01321   2.76110
    R8        2.06322   0.00056   0.00000   0.00160   0.00160   2.06483
    R9        2.81296  -0.00428   0.00000  -0.01263  -0.01263   2.80032
   R10        2.53138  -0.00438   0.00000  -0.00761  -0.00761   2.52378
   R11        3.28117  -0.00276   0.00000  -0.00816  -0.00815   3.27302
   R12        2.76003   0.00957   0.00000   0.01044   0.01044   2.77047
   R13        2.76269   0.01018   0.00000   0.01118   0.01118   2.77387
   R14        3.42181  -0.00444   0.00000  -0.01735  -0.01735   3.40446
   R15        2.30167  -0.00077   0.00000  -0.00080  -0.00080   2.30087
   R16        2.62791  -0.00431   0.00000  -0.00907  -0.00907   2.61884
   R17        2.79296  -0.00495   0.00000  -0.01412  -0.01411   2.77886
   R18        2.06207   0.00041   0.00000   0.00118   0.00118   2.06325
   R19        2.81329  -0.00416   0.00000  -0.01229  -0.01229   2.80101
   R20        2.07917  -0.00022   0.00000  -0.00064  -0.00064   2.07852
   R21        2.85956  -0.00418   0.00000  -0.01352  -0.01351   2.84605
   R22        2.94955  -0.00497   0.00000  -0.01856  -0.01854   2.93101
   R23        2.63784  -0.00392   0.00000  -0.00847  -0.00846   2.62937
   R24        2.64949  -0.00446   0.00000  -0.01020  -0.01021   2.63928
   R25        2.06030  -0.00012   0.00000  -0.00035  -0.00035   2.05995
   R26        2.64329  -0.00413   0.00000  -0.00891  -0.00891   2.63438
   R27        2.06453  -0.00065   0.00000  -0.00188  -0.00188   2.06265
   R28        2.64661  -0.00386   0.00000  -0.00834  -0.00834   2.63827
   R29        2.06510  -0.00063   0.00000  -0.00181  -0.00181   2.06328
   R30        2.64410  -0.00411   0.00000  -0.00888  -0.00889   2.63522
   R31        2.06545  -0.00055   0.00000  -0.00158  -0.00158   2.06387
   R32        2.63653  -0.00381   0.00000  -0.00822  -0.00822   2.62831
   R33        2.85078  -0.00404   0.00000  -0.01287  -0.01288   2.83789
   R34        2.08329  -0.00003   0.00000  -0.00009  -0.00009   2.08319
   R35        2.08039  -0.00071   0.00000  -0.00209  -0.00209   2.07830
   R36        2.92806  -0.00450   0.00000  -0.01574  -0.01574   2.91232
   R37        2.07740  -0.00031   0.00000  -0.00090  -0.00090   2.07649
   R38        2.87520  -0.00367   0.00000  -0.01207  -0.01210   2.86310
   R39        2.07487  -0.00035   0.00000  -0.00103  -0.00103   2.07384
   R40        2.07583  -0.00016   0.00000  -0.00048  -0.00048   2.07535
   R41        2.07735   0.00027   0.00000   0.00080   0.00080   2.07815
   R42        2.07422  -0.00041   0.00000  -0.00119  -0.00119   2.07304
   R43        2.88662  -0.00392   0.00000  -0.01352  -0.01354   2.87309
   R44        2.08151  -0.00020   0.00000  -0.00058  -0.00058   2.08093
   R45        2.94872  -0.00501   0.00000  -0.01844  -0.01842   2.93029
   R46        2.86435  -0.00415   0.00000  -0.01352  -0.01352   2.85082
   R47        2.07501  -0.00027   0.00000  -0.00079  -0.00079   2.07423
   R48        2.91702  -0.00454   0.00000  -0.01562  -0.01561   2.90141
   R49        2.08581  -0.00069   0.00000  -0.00206  -0.00206   2.08375
   R50        2.08161  -0.00052   0.00000  -0.00154  -0.00154   2.08007
   R51        2.85786  -0.00425   0.00000  -0.01364  -0.01365   2.84421
   R52        2.64854  -0.00450   0.00000  -0.01019  -0.01020   2.63834
   R53        2.63697  -0.00371   0.00000  -0.00801  -0.00801   2.62897
   R54        2.63620  -0.00385   0.00000  -0.00829  -0.00829   2.62790
   R55        2.06109  -0.00014   0.00000  -0.00040  -0.00040   2.06069
   R56        2.64351  -0.00418   0.00000  -0.00905  -0.00905   2.63447
   R57        2.06484  -0.00063   0.00000  -0.00180  -0.00180   2.06303
   R58        2.64409  -0.00415   0.00000  -0.00896  -0.00896   2.63513
   R59        2.64704  -0.00385   0.00000  -0.00832  -0.00832   2.63872
   R60        2.06571  -0.00054   0.00000  -0.00156  -0.00156   2.06415
   R61        2.06446  -0.00064   0.00000  -0.00185  -0.00185   2.06260
    A1        1.91713  -0.00014   0.00000  -0.00416  -0.00411   1.91302
    A2        1.90058   0.00049   0.00000   0.00369   0.00369   1.90428
    A3        1.60098  -0.00102   0.00000  -0.00781  -0.00788   1.59310
    A4        2.10099  -0.00036   0.00000  -0.00011  -0.00013   2.10086
    A5        1.96102   0.00038   0.00000   0.00226   0.00225   1.96327
    A6        1.91727   0.00050   0.00000   0.00415   0.00415   1.92141
    A7        2.17318   0.00090   0.00000   0.00281   0.00279   2.17597
    A8        1.97122   0.00038   0.00000  -0.00014  -0.00023   1.97099
    A9        2.09103  -0.00135   0.00000  -0.00680  -0.00678   2.08425
   A10        2.10796   0.00117   0.00000   0.00533   0.00533   2.11329
   A11        2.09098   0.00106   0.00000   0.00464   0.00464   2.09561
   A12        2.08421  -0.00223   0.00000  -0.01002  -0.01002   2.07419
   A13        2.09327  -0.00024   0.00000  -0.00100  -0.00108   2.09219
   A14        2.15103   0.00038   0.00000   0.00146   0.00138   2.15241
   A15        2.03885  -0.00014   0.00000  -0.00062  -0.00070   2.03815
   A16        1.90717   0.00024   0.00000  -0.00035  -0.00034   1.90683
   A17        1.91426   0.00003   0.00000  -0.00086  -0.00088   1.91338
   A18        1.61105  -0.00087   0.00000  -0.00393  -0.00392   1.60712
   A19        2.09260  -0.00009   0.00000   0.00112   0.00112   2.09372
   A20        1.95177   0.00034   0.00000   0.00286   0.00283   1.95460
   A21        1.92624   0.00016   0.00000  -0.00018  -0.00016   1.92608
   A22        2.17467   0.00110   0.00000   0.00312   0.00302   2.17769
   A23        1.99449   0.00038   0.00000   0.00069   0.00065   1.99514
   A24        2.09235  -0.00152   0.00000  -0.00780  -0.00784   2.08451
   A25        2.08628   0.00094   0.00000   0.00379   0.00379   2.09007
   A26        2.08951  -0.00242   0.00000  -0.01089  -0.01089   2.07863
   A27        2.10720   0.00148   0.00000   0.00707   0.00707   2.11427
   A28        2.09506  -0.00062   0.00000  -0.00245  -0.00245   2.09261
   A29        2.14977   0.00011   0.00000   0.00044   0.00044   2.15021
   A30        2.03754   0.00051   0.00000   0.00201   0.00201   2.03954
   A31        1.87695   0.00014   0.00000   0.00201   0.00201   1.87896
   A32        1.97895  -0.00048   0.00000  -0.00524  -0.00524   1.97371
   A33        1.86375   0.00009   0.00000  -0.00181  -0.00182   1.86193
   A34        1.96620   0.00024   0.00000   0.00385   0.00385   1.97005
   A35        1.97387   0.00003   0.00000   0.00154   0.00156   1.97543
   A36        1.80307  -0.00004   0.00000  -0.00083  -0.00086   1.80221
   A37        2.23864  -0.00033   0.00000  -0.00051  -0.00052   2.23812
   A38        1.93057  -0.00004   0.00000  -0.00112  -0.00112   1.92945
   A39        2.11397   0.00037   0.00000   0.00165   0.00164   2.11561
   A40        2.09528   0.00023   0.00000   0.00117   0.00117   2.09646
   A41        2.06876  -0.00038   0.00000  -0.00189  -0.00189   2.06687
   A42        2.11909   0.00015   0.00000   0.00071   0.00071   2.11979
   A43        2.08911  -0.00008   0.00000  -0.00046  -0.00046   2.08865
   A44        2.10407   0.00007   0.00000   0.00044   0.00044   2.10451
   A45        2.09000   0.00000   0.00000   0.00002   0.00002   2.09002
   A46        2.08888  -0.00007   0.00000  -0.00031  -0.00031   2.08858
   A47        2.10580   0.00021   0.00000   0.00106   0.00106   2.10686
   A48        2.08850  -0.00014   0.00000  -0.00075  -0.00075   2.08774
   A49        2.10142   0.00012   0.00000   0.00052   0.00052   2.10194
   A50        2.07620  -0.00034   0.00000  -0.00169  -0.00169   2.07451
   A51        2.10555   0.00022   0.00000   0.00118   0.00118   2.10673
   A52        2.09756   0.00007   0.00000   0.00044   0.00044   2.09801
   A53        1.93849   0.00015   0.00000  -0.00040  -0.00041   1.93808
   A54        2.24699  -0.00021   0.00000  -0.00004  -0.00004   2.24695
   A55        1.92045   0.00008   0.00000   0.00073   0.00073   1.92118
   A56        1.97605   0.00011   0.00000  -0.00027  -0.00028   1.97578
   A57        1.80558  -0.00031   0.00000  -0.00284  -0.00285   1.80272
   A58        1.87659   0.00019   0.00000   0.00390   0.00390   1.88049
   A59        1.93331  -0.00001   0.00000   0.00015   0.00015   1.93346
   A60        1.95235  -0.00007   0.00000  -0.00191  -0.00190   1.95045
   A61        1.84275   0.00026   0.00000   0.00211   0.00212   1.84487
   A62        1.88615  -0.00022   0.00000  -0.00144  -0.00144   1.88471
   A63        1.89041   0.00006   0.00000  -0.00128  -0.00129   1.88913
   A64        1.90973   0.00019   0.00000   0.00207   0.00207   1.91180
   A65        2.01614  -0.00038   0.00000  -0.00193  -0.00194   2.01420
   A66        1.91356   0.00009   0.00000   0.00043   0.00044   1.91400
   A67        1.82955   0.00021   0.00000  -0.00072  -0.00074   1.82881
   A68        1.86976  -0.00041   0.00000  -0.00460  -0.00460   1.86516
   A69        1.83825   0.00003   0.00000   0.00085   0.00086   1.83911
   A70        2.00840   0.00002   0.00000  -0.00130  -0.00130   2.00711
   A71        1.97686  -0.00008   0.00000   0.00202   0.00202   1.97888
   A72        1.92669   0.00020   0.00000   0.00317   0.00317   1.92987
   A73        1.85169   0.00031   0.00000   0.00309   0.00315   1.85485
   A74        1.86748  -0.00053   0.00000  -0.00484  -0.00484   1.86264
   A75        1.82772   0.00007   0.00000  -0.00431  -0.00443   1.82328
   A76        1.93253   0.00022   0.00000   0.00440   0.00439   1.93692
   A77        1.96667  -0.00010   0.00000   0.00289   0.00289   1.96956
   A78        2.00503   0.00002   0.00000  -0.00189  -0.00187   2.00316
   A79        1.87975   0.00006   0.00000   0.00103   0.00106   1.88081
   A80        1.88993   0.00004   0.00000  -0.00314  -0.00317   1.88676
   A81        2.01099  -0.00051   0.00000  -0.00527  -0.00528   2.00570
   A82        1.95435   0.00018   0.00000   0.00466   0.00466   1.95901
   A83        1.93019   0.00024   0.00000   0.00394   0.00393   1.93412
   A84        1.79907   0.00000   0.00000  -0.00118  -0.00120   1.79787
   A85        1.84587   0.00010   0.00000  -0.00251  -0.00257   1.84330
   A86        1.90638   0.00040   0.00000   0.00493   0.00494   1.91132
   A87        1.95761  -0.00060   0.00000  -0.00533  -0.00530   1.95231
   A88        1.94112  -0.00001   0.00000   0.00137   0.00139   1.94251
   A89        1.83330   0.00007   0.00000   0.00096   0.00095   1.83425
[...]
 0.00016487,-0.00093207,0.04532857,0.12352113,-0.14497922,0.00519538,0.
 00563719,-0.00117394,-0.10233182,-0.23359990,0.29400457,-0.00014657,-0
 .00002845,0.00041968,-0.00006680,0.00004184,0.00000782,-0.00025457,0.0
 0016021,-0.00031606,-0.00003923,-0.00001259,0.00001250,-0.00000101,-0.
 00000026,0.00000202,0.00001075,-0.00003376,-0.00009942,0.00019626,-0.0
 0002830,-0.00008175,0.00003172,0.00005330,-0.00010142,0.00004935,-0.00
 001718,-0.00002954,-0.00004302,-0.00000228,-0.00002764,-0.00006279,0.0
 0000974,0.00001375,-0.00003842,-0.00000157,-0.00002655,0.00000895,-0.0
 0000446,-0.00000234,-0.00002532,0.00000711,0.00000754,0.00011220,-0.00
 000258,0.00003002,-0.00001626,0.00000351,0.00000808,0.00001841,0.00000
 717,0.00001223,-0.00000156,-0.00000209,-0.00000158,-0.00000149,0.00000
 259,-0.00000151,-0.00000168,-0.00000032,-0.00000088,0.00000269,0.00000
 281,0.00000375,-0.00000289,0.00000117,0.00000146,0.00000090,-0.0000008
 2,0.00000016,-0.00000039,-0.00000073,-0.00000097,-0.00000014,-0.000001
 21,0.00000052,0.00000045,-0.00000007,-0.00000106,-0.00000029,-0.000000
 43,0.00000103,-0.00000058,-0.00000219,-0.00000133,0.00000099,0.0000008
 7,-0.00000028,0.00000247,0.00000034,-0.00000067,-0.00000194,-0.0000005
 3,0.00000012,-0.00000099,0.00000216,-0.00000152,-0.00000256,-0.0000005
 4,-0.00000053,-0.00000401,-0.00000022,0.00000211,-0.00000151,0.0000001
 8,-0.00000076,-0.00000041,-0.00000112,-0.00000057,0.00007671,0.0000640
 3,-0.00003960,-0.00003854,0.00000050,0.00003721,-0.00001114,0.00000822
 ,-0.00002118,-0.00029680,-0.00052456,0.00054902,-0.00004884,0.00015955
 ,-0.00009329,-0.00005283,-0.00000663,-0.00004613,0.00003943,0.00002034
 ,-0.00005153,0.00058787,-0.00117355,-0.00014062,-0.00002278,0.00017679
 ,-0.00013728,0.00017255,0.00064809,-0.00055340,-0.01322006,-0.00290928
 ,0.00542612,0.00070226,0.00371394,-0.00057610,0.00048322,0.00010543,-0
 .00038022,-0.00013372,-0.00016310,-0.00018621,-0.00860468,0.00362344,0
 .00044775,0.00067302,-0.00056955,-0.00075023,-0.32898713,0.00815167,0.
 06116211,0.34794675,0.00020634,0.00002507,-0.00024932,0.00000131,0.000
 00567,-0.00009130,0.00035646,-0.00028079,0.00034003,0.00000645,0.00002
 289,-0.00001492,0.00000088,-0.00000039,-0.00000129,-0.00005597,-0.0000
 1470,0.00003477,-0.00011620,-0.00001277,0.00019999,-0.00005429,-0.0000
 4856,0.00006401,-0.00000843,0.00000616,0.00002293,0.00001278,0.0000002
 9,0.00000659,0.00001982,-0.00000427,-0.00000929,0.00002062,0.00000030,
 0.00001059,-0.00000183,0.00000145,0.00000173,0.00000370,-0.00000462,-0
 .00000607,-0.00003836,-0.00000337,-0.00000896,0.00000157,0.00000148,-0
 .00000793,-0.00000299,-0.00000139,-0.00000261,0.00000030,0.00000060,0.
 00000025,0.00000067,-0.00000092,0.,0.,-0.00000015,0.00000022,-0.000000
 52,-0.00000049,-0.00000056,0.00000022,0.00000023,-0.00000010,-0.000000
 07,0.,0.00000002,0.00000009,0.00000045,-0.00000006,0.00000006,0.000000
 15,0.00000012,-0.00000011,-0.00000016,-0.00000032,0.00000034,0.0000001
 5,-0.00000009,-0.00000005,0.00000070,0.00000069,0.00000012,-0.00000028
 ,-0.00000006,-0.00000024,-0.00000030,0.,0.00000040,0.00000006,-0.00000
 004,0.00000015,0.00000016,0.00000072,0.00000055,0.00000003,-0.00000013
 ,0.00000105,0.00000006,-0.00000179,0.00000081,-0.00000016,0.00000022,-
 0.00000013,0.00000034,0.00000012,-0.00006792,0.00004334,0.00006401,0.0
 0000614,-0.00000197,-0.00000947,0.00000177,0.00000134,0.00001794,0.000
 89823,0.00030690,-0.00041996,0.00006044,-0.00015247,0.00004380,0.00016
 378,0.00021872,-0.00010068,-0.00007672,-0.00000695,0.00001709,-0.00081
 829,0.00019863,-0.00227794,-0.00004141,-0.00053601,0.00009197,0.000009
 37,0.00008350,0.00018756,0.02285853,0.00464599,-0.00594280,0.00278156,
 -0.00161601,0.00468316,-0.00005565,-0.00120282,0.00015712,-0.00012519,
 -0.00022938,-0.00060794,-0.02300586,0.00480946,0.00410493,-0.00012964,
 -0.00024287,-0.00226094,0.00905352,-0.05259982,0.00737651,-0.00986101,
 0.04788092,-0.00011676,0.00000667,0.00009871,0.00001599,0.00000599,-0.
 00000499,0.00004539,0.00007637,-0.00001813,0.00000100,-0.00001012,0.00
 001128,-0.00000356,0.00000215,0.00000089,0.00003098,-0.00001036,-0.000
 01579,-0.00005037,-0.00001692,0.00000025,0.00003939,-0.00002730,-0.000
 00997,-0.00000733,0.00001040,0.00001518,0.00000875,-0.00000311,-0.0000
 0463,0.00001440,-0.00000568,-0.00000947,0.00000190,-0.00000038,-0.0000
 0124,-0.00000032,0.00000098,0.00000066,0.00000247,-0.00000472,-0.00000
 419,-0.00002322,0.00000599,0.00000625,0.00000290,-0.00000214,-0.000004
 91,-0.00000289,-0.00000066,-0.00000158,0.00000001,0.00000037,0.0000002
 8,0.00000106,-0.00000005,-0.00000013,-0.00000007,-0.00000059,0.0000005
 1,-0.00000075,0.00000026,-0.00000051,0.00000081,0.00000022,0.00000020,
 -0.00000067,-0.00000036,-0.00000049,-0.00000002,-0.00000048,0.00000031
 ,-0.00000027,0.00000029,-0.00000005,-0.00000006,-0.00000059,0.00000009
 ,0.00000022,0.00000013,-0.00000041,0.00000008,0.00000082,0.00000084,-0
 .00000040,0.00000001,-0.00000036,-0.00000052,-0.00000023,0.00000004,0.
 00000076,-0.00000016,0.00000003,0.00000003,0.00000009,0.00000028,0.000
 00036,0.00000003,0.00000018,0.00000097,-0.00000066,-0.00000092,0.00000
 052,0.00000007,0.00000012,-0.00000005,0.00000025,0.00000033,0.00004894
 ,0.00006798,0.00000106,-0.00001685,-0.00002031,0.00001510,-0.00000719,
 -0.00000099,-0.00001328,-0.00048815,-0.00014463,0.00020149,0.00004521,
 0.00005755,0.00001425,0.00014391,-0.00002598,-0.00023742,0.00000151,0.
 00000989,-0.00000397,-0.00093207,-0.00198116,-0.00183121,-0.00012857,-
 0.00059573,0.00027211,0.00044633,0.00018097,-0.00046254,-0.01006017,0.
 00045819,0.00523892,-0.00022246,0.00470096,0.00485254,-0.00032560,0.00
 008945,-0.00101314,-0.00023131,-0.00060588,-0.00092370,0.01617636,-0.0
 0187995,0.00057014,-0.00101649,-0.00215967,-0.00268692,0.06077525,0.00
 731992,-0.05462259,-0.06693938,-0.01118435,0.04676271,-0.00003827,-0.0
 0018758,0.00057168,-0.00044549,0.00094837,-0.00117354,0.00016962,-0.00
 048554,-0.00107719,-0.00008106,-0.00006649,-0.00002245,-0.00002907,-0.
 00000197,-0.00000735,0.00007928,-0.00002442,-0.00014422,-0.00057563,0.
 00007131,0.00162874,0.00000536,0.00006776,-0.00003748,0.00010063,-0.00
 003399,-0.00006664,-0.00008986,-0.00000175,-0.00005229,-0.00012554,0.0
 0002018,0.00003136,-0.00006285,-0.00000095,-0.00006298,0.00003020,-0.0
 0001251,-0.00000622,-0.00005042,0.00001446,0.00001669,0.00022836,-0.00
 001410,0.00005128,-0.00003467,0.00000512,0.00002145,0.00003696,0.00001
 592,0.00002364,-0.00000340,-0.00000461,-0.00000301,-0.00000274,0.00000
 433,-0.00000277,-0.00000231,0.00000015,-0.00000163,0.00000522,0.000005
 22,0.00000702,-0.00000530,0.00000109,0.00000327,0.00000165,-0.00000089
 ,-0.00000058,0.00000032,-0.00000140,-0.00000141,-0.00000128,-0.0000026
 6,0.00000010,0.00000151,-0.00000014,-0.00000125,-0.00000171,-0.0000004
 9,0.00000187,-0.00000113,-0.00000430,-0.00000225,0.00000128,0.00000177
 ,-0.00000076,0.00000524,0.00000130,-0.00000137,-0.00000400,-0.00000097
 ,-0.00000009,-0.00000179,0.00000456,-0.00000342,-0.00000494,-0.0000012
 4,-0.00000075,-0.00000792,-0.00000068,0.00000481,-0.00000332,0.0000007
 5,-0.00000183,-0.00000101,-0.00000226,-0.00000115,0.00016854,-0.000096
 84,-0.00035340,-0.00005797,0.00018535,0.00015429,-0.00006719,0.0001508
 5,0.00001522,0.00051454,-0.00262760,0.00507965,-0.00095949,0.00083628,
 -0.00012554,0.00020343,-0.00139452,0.00140354,-0.00020314,0.00006270,0
 .00020576,-0.00101846,-0.00129698,0.00020519,0.00077746,-0.00002983,0.
 00012424,0.00048076,-0.00021091,-0.00045564,-0.05987041,0.02894989,-0.
 00643373,0.06405071,0.02426304,-0.02937343,-0.20271206,0.08011517,-0.0
 1489305,-0.01014481,0.02234158,-0.01063373,-0.33951611,0.03908404,0.03
 950703,-0.01100431,-0.00261837,0.00465311,-0.01479414,-0.06716103,0.04
 606754,0.00154829,-0.00086295,0.00193536,0.67766905,-0.00052056,-0.000
 34662,0.00042498,-0.00016502,0.00044258,-0.00063751,0.00112819,0.00064
 430,-0.00019084,-0.00000510,-0.00004454,-0.00005637,-0.00002704,-0.000
 01474,0.00000316,0.00015819,0.00020971,-0.00001956,0.00014374,-0.00025
 654,0.00091198,0.00012983,0.00009047,-0.00010775,0.00005542,-0.0000078
 0,-0.00008489,-0.00006322,0.00000826,-0.00002139,-0.00008652,0.0000161
 2,0.00003802,-0.00002659,0.00000387,-0.00004119,0.00001585,-0.00000574
 ,-0.00000710,-0.00002811,0.00000817,0.00001969,0.00016987,-0.00002062,
 0.00001368,-0.00001500,-0.00001212,0.00003258,0.00001937,0.00001027,0.
 00001250,-0.00000205,-0.00000334,-0.00000138,-0.00000158,0.00000255,-0
 .00000079,0.00000034,0.00000148,-0.00000163,0.00000345,0.00000220,0.00
 000371,-0.00000220,-0.00000136,0.00000150,0.00000101,0.00000044,-0.000
 00075,0.00000103,-0.00000163,-0.00000014,-0.00000157,-0.00000160,-0.00
 000101,0.00000109,0.00000003,0.00000148,-0.00000253,-0.00000010,0.0000
 0068,-0.00000055,-0.00000277,-0.00000152,-0.00000070,0.00000128,-0.000
 00074,0.00000219,0.00000207,-0.00000038,-0.00000215,-0.00000048,0.0000
 0005,-0.00000040,0.00000178,-0.00000253,-0.00000283,-0.00000061,0.0000
 0038,-0.00000553,-0.00000201,0.00000701,-0.00000313,0.00000136,-0.0000
 0133,0.00000034,-0.00000167,-0.00000015,-0.00001718,-0.00005538,0.0000
 6043,-0.00002253,-0.00011386,-0.00010173,0.00008226,-0.00005185,0.0000
 1583,-0.00440559,0.00194928,0.00381045,0.00014958,0.00025366,-0.000674
 95,0.00034017,-0.00079620,-0.00023311,-0.00020888,-0.00014033,0.000250
 12,-0.00044808,-0.00049188,-0.00086635,-0.00023187,-0.00034849,0.00039
 444,-0.00000281,0.00011161,0.00029880,0.02871568,-0.01574543,-0.000168
 21,-0.01661626,-0.04363984,0.03420437,0.13679727,-0.24280463,0.0752783
 5,-0.00274881,0.00391115,0.00043198,-0.01912024,-0.11065765,0.03141906
 ,0.02437377,0.00260507,-0.00506838,-0.02558961,0.02907163,-0.00724559,
 -0.00181389,-0.00142675,0.00568793,-0.03483423,0.58842807,0.00038683,-
 0.00002035,-0.00028907,0.00042056,-0.00053804,0.00098426,0.00001568,-0
 .00080411,0.00080783,0.00002278,0.00004947,0.00007493,0.00004045,0.000
 00295,0.00000598,-0.00008421,-0.00000675,0.00005887,0.00034357,-0.0001
 0902,-0.00129735,-0.00009626,-0.00006862,0.00012035,-0.00006756,-0.000
 01340,0.00001319,0.00005147,0.00001140,0.00004718,0.00006474,0.0000017
 5,-0.00000472,0.00003913,0.00000516,0.00003781,-0.00002840,0.00000126,
 -0.00000115,0.00003945,0.00000524,-0.00000087,-0.00012547,-0.00000327,
 -0.00003807,0.00002138,0.00000801,-0.00000452,-0.00002201,-0.00001336,
 -0.00001292,0.00000284,0.00000328,0.00000166,-0.00000134,-0.00000337,0
 .00000181,0.00000048,0.00000093,0.00000025,-0.00000206,-0.00000546,-0.
 00000307,0.00000135,0.00000014,-0.00000378,0.00000098,0.00000134,0.000
 00310,-0.00000055,0.00000325,-0.00000033,0.00000255,0.00000157,0.00000
 065,-0.00000113,0.00000209,-0.00000008,0.00000136,-0.00000012,-0.00000
 030,0.00000113,0.00000102,-0.00000116,0.00000044,-0.00000180,0.0000018
 0,-0.00000279,-0.00000090,0.00000085,0.00000113,0.00000148,0.00000004,
 0.00000134,-0.00000461,0.00000174,0.00000289,0.00000123,0.00000018,0.0
 0000422,0.00000323,-0.00000182,0.00000132,-0.00000086,0.00000117,0.000
 00081,0.00000146,0.00000011,-0.00000276,0.00003611,0.00000510,0.000004
 52,0.00000354,-0.00000043,-0.00004024,0.00000583,-0.00001585,0.0030702
 3,0.00399138,0.00369171,-0.00030020,0.00100082,-0.00041371,0.00009291,
 0.00036343,0.00001227,0.00003696,0.00002463,-0.00012155,0.00034065,0.0
 0009329,-0.00075578,-0.00001796,0.00002451,-0.00018044,-0.00016898,0.0
 0019275,-0.00017108,-0.00494966,-0.00192093,-0.00532117,-0.00296150,0.
 02523006,-0.00708848,-0.04953218,0.08799999,-0.10428071,0.00488711,-0.
 00541923,0.00602190,0.07393222,0.01814654,-0.09235866,-0.01107766,0.00
 100988,0.00527719,0.02024607,0.00295678,0.00158628,0.00240457,0.005438
 51,0.00381481,-0.10298493,-0.26025293,0.31482398,0.00000617,0.00002646
 ,0.00003303,-0.00002047,-0.00007752,0.00014605,-0.00011424,-0.00007790
 ,0.00006347,-0.00000153,0.00000008,0.00000874,0.00000262,0.00000336,-0
 .00000239,-0.00001055,-0.00001868,-0.00000832,0.00012551,0.00001345,-0
 .00019973,0.00000099,-0.00000827,-0.00000472,-0.00001123,0.00002869,-0
 .00001300,0.00000670,-0.00000454,0.00000477,0.00000893,-0.00000718,0.0
 0000112,-0.00000743,-0.00000401,-0.00000286,-0.00000158,0.00000694,-0.
 00000017,0.00000308,-0.00000918,0.00000298,-0.00001478,0.00000703,-0.0
 0000171,0.00000834,-0.00001592,0.00000800,-0.00000577,0.00000127,-0.00
 000430,0.00000018,0.00000007,0.00000086,0.00000172,0.00000055,0.000000
 98,0.00000168,-0.00000017,0.00000043,-0.00000115,0.00000053,-0.0000019
 1,0.00000210,-0.00000142,0.00000028,-0.00000131,-0.00000004,-0.0000013
 8,0.00000017,-0.00000177,0.00000111,-0.00000083,0.00000041,-0.00000073
 ,0.,-0.00000083,0.00000151,-0.00000054,0.00000018,-0.00000083,0.000000
 02,0.00000082,0.00000121,-0.00000136,0.00000042,-0.00000075,-0.0000014
 3,0.00000041,0.00000044,0.00000117,-0.00000034,0.00000013,0.00000033,-
 0.00000048,-0.00000003,0.00000076,0.00000012,0.00000071,0.00000070,-0.
 00000213,0.00000157,-0.00000011,0.00000049,0.00000004,0.00000092,-0.00
 000003,0.00000062,0.00003017,0.00001808,-0.00001477,-0.00001069,0.0000
 0052,-0.00000356,-0.00001052,-0.00000553,-0.00001542,0.00072936,0.0004
 5515,-0.00037750,-0.00000178,0.00000531,0.00001454,-0.00011989,0.00016
 005,-0.00006898,0.00007686,0.00000913,-0.00005351,0.00006529,-0.000138
 51,-0.00009755,-0.00001629,-0.00001512,0.00000166,0.00004808,0.0000344
 0,-0.00005553,-0.00106165,0.00082517,-0.00043590,-0.00122918,0.0039875
 2,-0.00030293,0.01028511,0.01438162,-0.01018200,0.00063647,-0.00084646
 ,-0.00057864,-0.00700321,-0.02368020,0.01635730,0.00088233,-0.00027081
 ,-0.00097078,-0.00517720,0.00159707,0.00181925,-0.00053430,-0.00114422
 ,0.00083465,-0.10415663,-0.08526630,0.06598373,0.10658990,-0.00010114,
 0.00000038,-0.00019312,0.00010959,0.00002024,-0.00018495,0.00023819,-0
 .00001349,-0.00005221,0.00003880,0.00001131,-0.00001401,-0.00000871,-0
 .00000264,0.00000325,0.00006391,0.00005085,0.00006390,-0.00032853,0.00
 003553,0.00024730,0.00003741,-0.00004559,0.00004724,-0.00002685,-0.000
 01354,0.00008201,0.00003609,0.00000173,0.00000166,0.00005703,-0.000007
 31,-0.00003149,0.00003702,0.00000663,0.00002598,-0.00000444,-0.0000039
 6,0.00000571,0.00001481,0.00000052,-0.00002169,-0.00010003,0.00000073,
 -0.00000511,0.00000226,0.00001970,-0.00003404,-0.00000856,-0.00000786,
 -0.00000478,0.00000076,0.00000190,0.,0.00000047,-0.00000255,-0.0000007
 5,-0.00000116,-0.00000043,0.00000084,-0.00000139,-0.00000234,-0.000000
 96,0.00000062,0.00000111,-0.00000140,0.00000019,-0.00000007,0.00000094
 ,-0.00000020,0.00000213,-0.00000032,0.00000092,0.00000068,0.00000067,-
 0.00000067,0.00000016,-0.00000126,0.00000163,0.00000025,-0.00000007,0.
 00000025,0.00000214,0.00000092,0.00000093,-0.00000116,0.00000084,-0.00
 000050,-0.00000124,-0.00000006,0.00000099,0.00000046,-0.00000010,0.000
 00015,-0.00000022,0.00000182,0.00000110,0.00000006,-0.00000070,0.00000
 325,0.00000232,-0.00000625,0.00000250,-0.00000103,0.00000089,-0.000001
 43,0.00000121,-0.00000011,-0.00002022,-0.00001987,-0.00000197,0.000009
 34,0.00000168,-0.00001023,0.00000162,0.00000769,0.00001274,-0.00098873
 ,-0.00007429,0.00047744,0.00002137,-0.00004990,0.00004791,0.00016468,-
 0.00035353,-0.00003969,-0.00009348,-0.00004561,0.00010582,-0.00008912,
 -0.00022044,-0.00025070,-0.00007538,-0.00007961,0.00001319,0.00003461,
 0.00001366,-0.00000809,0.00079280,-0.00012120,-0.00066720,0.00423326,-
 0.00071825,0.00388649,-0.01202322,-0.01200482,0.01198682,-0.00055781,-
 0.00025286,-0.00222104,0.00314047,0.00344554,-0.00092955,-0.00069327,-
 0.00042310,-0.00198956,0.00101626,0.00300806,0.00208530,0.00019828,0.0
 0013331,-0.00000074,-0.08516895,-0.21078083,0.12256284,0.09003226,0.21
 847775,0.00008491,0.00007904,0.00017943,-0.00005397,-0.00004460,0.0000
 4201,-0.00027117,-0.00008079,-0.00005836,-0.00002434,0.00000496,0.0000
 0707,0.00000119,0.00000613,-0.00000384,-0.00005863,-0.00008288,-0.0000
 5665,0.00019495,0.00002093,-0.00008740,-0.00002684,0.00000812,-0.00004
 761,0.00002944,0.00002485,0.00000233,-0.00001905,-0.00001408,-0.000022
 74,-0.00002530,-0.00000812,-0.00000444,-0.00002884,-0.00000770,-0.0000
 1397,0.00000565,0.00000468,0.00000089,-0.00001986,-0.00001072,-0.00000
 101,0.00004522,0.00000949,0.00002611,-0.00000775,-0.00001006,-0.000000
 48,0.00001042,0.00000921,0.00000458,-0.00000154,-0.00000166,-0.0000004
 8,0.00000231,0.00000233,-0.00000056,0.00000067,-0.00000128,0.00000036,
 0.00000020,0.00000443,0.00000039,0.00000025,-0.00000002,0.00000333,-0.
 00000178,-0.00000128,-0.00000320,0.00000019,-0.00000295,0.00000074,-0.
 00000206,-0.00000065,-0.00000036,0.00000040,-0.00000216,0.00000014,-0.
 00000039,0.00000015,-0.00000027,-0.00000077,0.00000013,0.00000190,-0.0
 0000064,0.00000137,-0.00000153,0.00000097,-0.00000001,-0.00000037,0.00
 000020,-0.00000129,0.00000003,-0.00000080,0.00000268,-0.00000085,-0.00
 000108,-0.00000057,0.00000006,-0.00000130,-0.00000257,0.00000028,-0.00
 000030,0.00000042,-0.00000052,-0.00000017,-0.00000072,0.00000009,0.000
 02076,0.00003647,-0.00003097,-0.00000183,0.00000986,0.00000674,-0.0000
 1878,-0.00000567,-0.00002326,0.00073413,0.00010697,0.00020267,-0.00003
 391,0.00006235,-0.00002978,-0.00012669,0.00006579,-0.00010709,0.000021
 31,-0.00002538,-0.00003298,-0.00022083,-0.00047444,-0.00052022,-0.0001
 0154,-0.00013465,0.00004488,0.00013275,0.00002833,-0.00003372,-0.00015
 097,-0.00055144,-0.00044452,-0.00082531,0.00404470,0.00536477,0.005557
 46,0.00618296,-0.00158458,-0.00092422,-0.00214977,-0.00273149,0.000272
 25,0.00515031,-0.00003878,-0.00072179,-0.00205486,-0.00262510,0.002170
 85,0.00199368,0.00518367,0.00006198,0.00033329,-0.00000704,0.06621322,
 0.12246704,-0.12502989,-0.07188927,-0.13499034,0.12247156\\-0.00000122
 ,0.00000069,-0.00000228,-0.00000102,0.00000070,0.00000507,-0.00000252,
 0.00000297,0.00000377,0.00000281,-0.00000022,0.00000030,0.00000020,0.0
 0000127,-0.00000123,-0.00000198,-0.00000123,-0.00000096,0.00000356,-0.
 00000238,-0.00000580,-0.00000025,0.00000222,0.00000021,0.00000076,0.00
 000260,0.00000226,-0.00000016,-0.00000040,-0.00000217,-0.00000122,-0.0
 0000644,-0.00000146,-0.00000108,-0.00000118,0.00000161,0.00000020,0.00
 000013,-0.00000050,0.00000073,0.00000047,0.00000097,0.00000066,0.00000
 385,0.00000106,-0.00000217,-0.00000286,0.00000213,0.00000154,0.0000031
 5,0.00000217,-0.00000081,0.00000022,0.00000009,-0.00000041,-0.00000043
 ,-0.00000144,0.00000095,0.00000009,0.00000010,-0.00000043,0.00000047,-
 0.00000017,0.00000084,0.00000031,-0.00000150,-0.00000006,0.00000058,-0
 .00000076,-0.00000072,-0.00000076,-0.00000023,0.00000014,-0.00000025,-
 0.00000039,-0.00000040,-0.00000107,0.00000042,-0.00000011,-0.00000068,
 0.00000002,-0.00000026,0.00000135,-0.00000069,0.00000175,-0.00000030,0
 .00000289,-0.00000047,-0.00000094,0.00000137,-0.00000033,-0.00000046,0
 .00000039,0.00000006,-0.00000132,-0.00000039,-0.00000030,-0.00000003,0
 .00000087,-0.00000015,0.00000021,0.00000016,0.00000058,-0.00000099,0.0
 0000141,-0.00000047,-0.00000004,0.00000132,0.00000099,-0.00000060,0.00
 000174,-0.00000060,0.00000102,-0.00000118,-0.00000113,0.00000172,-0.00
 000059,-0.00000136,-0.00000093,-0.00000088,0.00000073,-0.00000007,0.00
 000088,-0.00000141,0.00000121,-0.00000129,0.00000010,0.00000076,0.0000
 0067,0.00000168,0.00000063,0.00000069,0.00000049,0.00000017,-0.0000002
 0,0.00000024,0.00000070,-0.00000069,-0.00000031,-0.00000034,-0.0000003
 8,-0.00000059,0.00000125,-0.00000029,0.00000009,-0.00000122,-0.0000005
 6,0.00000012,-0.00000064,-0.00000043,0.00000136,-0.00000098,-0.0000012
 1,0.00000029,-0.00000041,-0.00000138,0.00000128,-0.00000051,-0.0000007
 2,0.00000023,0.00000029,-0.00000113,-0.00000057,-0.00000076,-0.0000004
 7,0.00000013,-0.00000059,-0.00000118\\\@
 The archive entry for this job was punched.


 NEVER TEACH A PIG TO SING.
 IT WASTES YOUR TIME AND ANNOYS THE PIG.
     -- SEEN ON A GREETING CARD
 Job cpu time:       0 days  4 hours 59 minutes 20.7 seconds.
 Elapsed time:       0 days  1 hours 15 minutes 12.4 seconds.
 File lengths (MBytes):  RWF=   2292 Int=      0 D2E=      0 Chk=     31 Scr=      1
 Normal termination of Gaussian 16 at Fri Oct 11 23:52:30 2024.
